
Running Job 1 of 1 tddft-uks-pc2.in
qchem tddft-uks-pc2.in_496065.0 /vast/palmer/scratch/batista/am3939/qchem-scratch/qchem496065/ 0
/vast/palmer/apps/avx2/software/Q-Chem/5.4-openmp/exe/qcprog.exe_s tddft-uks-pc2.in_496065.0 /vast/palmer/scratch/batista/am3939/qchem-scratch/qchem496065/
                  Welcome to Q-Chem
     A Quantum Leap Into The Future Of Chemistry


 Q-Chem 5.4, Q-Chem, Inc., Pleasanton, CA (2021)

 License issued to: SRG Sharon Hammes-Schiffer, Yale University

 E. Epifanovsky,  A. T. B. Gilbert,  Xintian Feng,  Joonho Lee,  Yuezhi Mao,
 N. Mardirossian,  P. Pokhilko,  A. White,  M. Wormit,  M. P. Coons,
 A. L. Dempwolff,  Zhengting Gan,  D. Hait,  P. R. Horn,  L. D. Jacobson,
 I. Kaliman,  J. Kussmann,  A. W. Lange,  Ka Un Lao,  D. S. Levine,  Jie Liu,
 S. C. McKenzie,  A. F. Morrison,  K. Nanda,  F. Plasser,  D. R. Rehn,
 M. L. Vidal,  Zhi-Qiang You,  Ying Zhu,  B. Alam,  B. Albrecht,
 A. Aldossary,  E. Alguire,  J. H. Andersen,  D. Barton,  K. Begam,  A. Behn,
 Y. A. Bernard,  E. J. Berquist,  H. Burton,  A. Carreras,  K. Carter-Fenk,
 R. Chakraborty,  A. D. Chien,  K. D. Closser,  V. Cofer-Shabica,
 S. Dasgupta,  Jia Deng,  M. de Wergifosse,  M. Diedenhofen,  Hainam Do,
 S. Ehlert,  Po-Tung Fang,  S. Fatehi,  Qingguo Feng,  T. Friedhoff,
 J. Gayvert,  Qinghui Ge,  G. Gidofalvi,  M. Goldey,  J. Gomes,
 C. Gonzalez-Espinoza,  S. Gulania,  A. Gunina,  M. W. D. Hanson-Heine,
 P. H. P. Harbach,  A. W. Hauser,  M. F. Herbst,  M. Hernandez Vera,
 M. Hodecker,  Z. C. Holden,  S. Houck,  Xunkun Huang,  Kerwin Hui,
 B. C. Huynh,  M. Ivanov,  Hyunjun Ji,  Hanjie Jiang,  B. Kaduk,  S. Kaehler,
 K. Khistyaev,  Jaehoon Kim,  P. Klunzinger,  Z. Koczor-Benda,
 Joong Hoon Koh,  D. Kosenkov,  L. Koulias,  T. Kowalczyk,  C. M. Krauter,
 K. Kue,  A. Kunitsa,  T. Kus,  A. Landau,  K. V. Lawler,  D. Lefrancois,
 S. Lehtola,  Rain Li,  Yi-Pei Li,  Jiashu Liang,  M. Liebenthal,
 Hung-Hsuan Lin,  You-Sheng Lin,  Fenglai Liu,  Kuan-Yu Liu,
 M. Loipersberger,  A. Luenser,  A. Manjanath,  P. Manohar,  E. Mansoor,
 S. F. Manzer,  Shan-Ping Mao,  A. V. Marenich,  T. Markovich,  S. Mason,
 S. A. Maurer,  P. F. McLaughlin,  M. F. S. J. Menger,  J.-M. Mewes,
 S. A. Mewes,  P. Morgante,  J. W. Mullinax,  K. J. Oosterbaan,  G. Paran,
 Alexander C. Paul,  Suranjan K. Paul,  F. Pavosevic,  Zheng Pei,  S. Prager,
 E. I. Proynov,  E. Ramos,  B. Rana,  A. E. Rask,  A. Rettig,  R. M. Richard,
 F. Rob,  E. Rossomme,  T. Scheele,  M. Scheurer,  M. Schneider,
 N. Sergueev,  S. M. Sharada,  W. Skomorowski,  D. W. Small,  C. J. Stein,
 Yu-Chuan Su,  E. J. Sundstrom,  Zhen Tao,  J. Thirman,  T. Tsuchimochi,
 N. M. Tubman,  S. P. Veccham,  O. Vydrov,  J. Wenzel,  J. Witte,  A. Yamada,
 Kun Yao,  S. Yeganeh,  S. R. Yost,  A. Zech,  Igor Ying Zhang,  Xing Zhang,
 Yu Zhang,  D. Zuev,  A. Aspuru-Guzik,  A. T. Bell,  N. A. Besley,
 K. B. Bravaya,  B. R. Brooks,  D. Casanova,  Jeng-Da Chai,  S. Coriani,
 C. J. Cramer,  A. E. DePrince, III,  R. A. DiStasio Jr.,  A. Dreuw,
 B. D. Dunietz,  T. R. Furlani,  W. A. Goddard III,  S. Grimme,
 S. Hammes-Schiffer,  T. Head-Gordon,  W. J. Hehre,  Chao-Ping Hsu,
 T.-C. Jagau,  Yousung Jung,  A. Klamt,  Jing Kong,  D. S. Lambrecht,
 WanZhen Liang,  N. J. Mayhall,  C. W. McCurdy,  J. B. Neaton,
 C. Ochsenfeld,  J. A. Parkhill,  R. Peverati,  V. A. Rassolov,  Yihan Shao,
 L. V. Slipchenko,  T. Stauch,  R. P. Steele,  J. E. Subotnik,
 A. J. W. Thom,  A. Tkatchenko,  D. G. Truhlar,  T. Van Voorhis,
 T. A. Wesolowski,  K. B. Whaley,  H. L. Woodcock III,  P. M. Zimmerman,
 S. Faraji,  P. M. W. Gill,  M. Head-Gordon,  J. M. Herbert,  A. I. Krylov

 Additional authors for Version 5.4.1:
 S. Kotaru,  Shaozhi Li,  Xiangyuan Li,  F. Matz,  A. Molle,  Haisheng Ren,
 Yingli Su,  Hung-Yi Tsai,  C. Utku,  Fang Wang

 Contributors to earlier versions of Q-Chem not listed above:
 R. D. Adamson,  B. Austin,  R. Baer,  J. Baker,  G. J. O. Beran,
 K. Brandhorst,  S. T. Brown,  E. F. C. Byrd,  A. K. Chakraborty,
 G. K. L. Chan,  Chun-Min Chang,  Yunqing Chen,  C.-L. Cheng,
 Siu Hung Chien,  D. M. Chipman,  D. L. Crittenden,  H. Dachsel,
 R. J. Doerksen,  A. D. Dutoi,  R. G. Edgar,  J. Fosso-Tande,
 L. Fusti-Molnar,  D. Ghosh,  A. Ghysels,  A. Golubeva-Zadorozhnaya,
 J. Gonthier,  M. S. Gordon,  S. R. Gwaltney,  G. Hawkins,  J. E. Herr,
 A. Heyden,  S. Hirata,  E. G. Hohenstein,  G. Kedziora,  F. J. Keil,
 C. Kelley,  Jihan Kim,  R. A. King,  R. Z. Khaliullin,  P. P. Korambath,
 W. Kurlancheek,  A. Laurent,  A. M. Lee,  M. S. Lee,  S. V. Levchenko,
 Ching Yeh Lin,  D. Liotard,  E. Livshits,  R. C. Lochan,  I. Lotan,
 L. A. Martinez-Martinez,  P. E. Maslen,  N. Nair,  D. P. O'Neill,
 D. Neuhauser,  E. Neuscamman,  C. M. Oana,  R. Olivares-Amaya,  R. Olson,
 T. M. Perrine,  B. Peters,  P. A. Pieniazek,  A. Prociuk,  Y. M. Rhee,
 J. Ritchie,  M. A. Rohrdanz,  E. Rosta,  N. J. Russ,  H. F. Schaefer III,
 M. W. Schmidt,  N. E. Schultz,  S. Sharma,  N. Shenvi,  C. D. Sherrill,
 A. C. Simmonett,  A. Sodt,  T. Stein,  D. Stuck,  K. S. Thanthiriwatte,
 V. Vanovschi,  L. Vogt,  Tao Wang,  A. Warshel,  M. A. Watson,
 C. F. Williams,  Q. Wu,  X. Xu,  Jun Yang,  W. Zhang,  Yan Zhao

 Please cite Q-Chem as follows:
 Y. Shao et al., Mol. Phys. 113, 184-215 (2015)
 DOI: 10.1080/00268976.2014.952696

 Q-Chem 5.4.1 for Intel X86 EM64T Linux

 Parts of Q-Chem use Armadillo 9.800.1 (Horizon Scraper).
 http://arma.sourceforge.net/

 Q-Chem begins on Sun May 18 17:49:25 2025

 Host:
0

     Scratch files written to /vast/palmer/scratch/batista/am3939/qchem-scratch/qchem496065//
 Aug1521 |scratch|qcdevops|jenkins|workspace|build_RNUM 7655
 Processing $rem in /vast/palmer/apps/avx2/software/Q-Chem/5.4-openmp/config/preferences:
 Processing $rem in /home/am3939/.qchemrc:

 Checking the input file for inconsistencies... 	...done.

--------------------------------------------------------------
User input:
--------------------------------------------------------------
$molecule
0 1
H        1.36499000      1.69385000     -0.19748000
O        2.32877000      1.56294000     -0.04168000
H        2.70244000      1.31157000     -0.91665000
$end

$rem
JOBTYPE           sp
METHOD            wb97x-d3
BASIS             pc-2
UNRESTRICTED      True
SYMMETRY          False
SYM_IGNORE        True
CIS_N_ROOTS       10
CIS_SINGLETS      True
CIS_TRIPLETS      False
STATE_ANALYSIS    True
RPA               True
$end
--------------------------------------------------------------
 Adding empirical dispersion correction
 ----------------------------------------------------------------
 Doing -D3(0) with
 s6  =   1.00000
 s8  =   1.00000
 rs6 =   1.28100
 rs8 =   1.09400
 -D3 energy without 3body term =     -0.0000016383 hartrees
 ----------------------------------------------------------------
             Standard Nuclear Orientation (Angstroms)
    I     Atom           X                Y                Z
 ----------------------------------------------------------------
    1      H       1.3649900000     1.6938500000    -0.1974800000
    2      O       2.3287700000     1.5629400000    -0.0416800000
    3      H       2.7024400000     1.3115700000    -0.9166500000
 ----------------------------------------------------------------
 Nuclear Repulsion Energy =           8.93764808 hartrees
 There are        5 alpha and        5 beta electrons
 Requested basis set is pc-2
 There are 22 shells and 58 basis functions

 Total QAlloc Memory Limit   8000 MB
 Mega-Array Size       188 MB
 MEM_STATIC part       192 MB

                       Distance Matrix (Angstroms)
             H (  1)   O (  2)
   O (  2)  0.985029
   H (  3)  1.565923  0.984067

 A cutoff of  1.0D-11 yielded    253 shell pairs
 There are      1793 function pairs (      2271 Cartesian)
 Smallest overlap matrix eigenvalue = 4.44E-03

 Scale SEOQF with 1.000000e-01/1.000000e-01/1.000000e+00

 Standard Electronic Orientation quadrupole field applied
 Nucleus-field energy     =     0.0000000026 hartrees
 Guess from superposition of atomic densities
 Warning:  Energy on first SCF cycle will be non-variational
 SAD guess density has 10.000000 electrons

 -----------------------------------------------------------------------
  General SCF calculation program by
  Eric Jon Sundstrom, Paul Horn, Yuezhi Mao, Dmitri Zuev, Alec White,
  David Stuck, Shaama M.S., Shane Yost, Joonho Lee, David Small,
  Daniel Levine, Susi Lehtola, Hugh Burton, Evgeny Epifanovsky,
  Bang C. Huynh
 -----------------------------------------------------------------------
 Exchange:     0.1957 Hartree-Fock + 1.0000 wB97X-D3 + LR-HF
 Correlation:  1.0000 wB97X-D3
 Using SG-2 standard quadrature grid
 Dispersion:   Grimme D3
 A unrestricted SCF calculation will be
 performed using DIIS
 SCF converges when DIIS error is below 1.0e-08
 ---------------------------------------
  Cycle       Energy         DIIS error
 ---------------------------------------
    1     -76.3054390407      2.65e-02
    2     -76.3834046873      6.73e-03
    3     -76.3907152522      6.81e-03
    4     -76.4411375993      3.03e-04
    5     -76.4412423157      8.03e-05
    6     -76.4412529311      9.39e-06
    7     -76.4412531327      1.05e-06
    8     -76.4412531367      1.43e-07
    9     -76.4412531368      1.80e-08
   10     -76.4412531368      3.36e-09  Convergence criterion met
 ---------------------------------------
 SCF time:   CPU 1.91s  wall 2.00s
<S^2> =          0.000000000
 SCF   energy in the final basis set =      -76.4412531368
 Total energy in the final basis set =      -76.4412531368

 Direct TDDFT/TDA calculation will be performed
 Exchange:     0.1957 Hartree-Fock + 1.0000 wB97X-D3 + LR-HF
 Correlation:  1.0000 wB97X-D3
 Using SG-2 standard quadrature grid
 Dispersion:   Grimme D3
 CIS energy converged when residual is below 10e- 6
 ---------------------------------------------------
 Iter    Rts Conv    Rts Left    Ttl Dev     Max Dev
 ---------------------------------------------------
   1         0          10      0.028058    0.004726
   2         0          10      0.008696    0.001412
   3         0          10      0.002430    0.000482
   4         0          10      0.000431    0.000085
   5         0          10      0.000063    0.000016
   6         6           4      0.000010    0.000003
   7        10           0      0.000004    0.000001    Roots Converged
 ---------------------------------------------------

 ---------------------------------------------------
         TDDFT/TDA Excitation Energies
 ---------------------------------------------------

 Excited state   1: excitation energy (eV) =    7.1479
 Total energy for state  1:                   -76.17857122 au
    <S**2>     :  2.0000
    Trans. Mom.: -0.0000 X  -0.0000 Y   0.0000 Z
    Strength   :     0.0000000000
    D(    5) --> V(    1) amplitude =  0.6980 alpha
    D(    5) --> V(    1) amplitude = -0.6980 beta

 Excited state   2: excitation energy (eV) =    7.5954
 Total energy for state  2:                   -76.16212816 au
    <S**2>     :  0.0000
    Trans. Mom.: -0.0869 X  -0.5093 Y   0.1092 Z
    Strength   :     0.0518863673
    D(    5) --> V(    1) amplitude =  0.7041 alpha
    D(    5) --> V(    1) amplitude =  0.7041 beta

 Excited state   3: excitation energy (eV) =    9.0388
 Total energy for state  3:                   -76.10908350 au
    <S**2>     :  2.0000
    Trans. Mom.: -0.0000 X  -0.0000 Y  -0.0000 Z
    Strength   :     0.0000000000
    D(    5) --> V(    2) amplitude = -0.6887 alpha
    D(    5) --> V(    2) amplitude =  0.6887 beta

 Excited state   4: excitation energy (eV) =    9.2313
 Total energy for state  4:                   -76.10200975 au
    <S**2>     :  2.0000
    Trans. Mom.:  0.0000 X   0.0000 Y   0.0000 Z
    Strength   :     0.0000000000
    D(    4) --> V(    1) amplitude =  0.6969 alpha
    D(    4) --> V(    1) amplitude = -0.6969 beta

 Excited state   5: excitation energy (eV) =    9.2974
 Total energy for state  5:                   -76.09958062 au
    <S**2>     :  0.0000
    Trans. Mom.:  0.0002 X   0.0014 Y  -0.0003 Z
    Strength   :     0.0000004744
    D(    5) --> V(    2) amplitude =  0.6960 alpha
    D(    5) --> V(    2) amplitude =  0.6960 beta

 Excited state   6: excitation energy (eV) =    9.8215
 Total energy for state  6:                   -76.08032096 au
    <S**2>     :  0.0000
    Trans. Mom.:  0.3369 X   0.0684 Y   0.5866 Z
    Strength   :     0.1112276712
    D(    4) --> V(    1) amplitude =  0.7011 alpha
    D(    4) --> V(    1) amplitude =  0.7011 beta

 Excited state   7: excitation energy (eV) =   11.0057
 Total energy for state  7:                   -76.03680044 au
    <S**2>     :  2.0000
    Trans. Mom.:  0.0000 X  -0.0000 Y   0.0000 Z
    Strength   :     0.0000000000
    D(    4) --> V(    2) amplitude =  0.6790 alpha
    D(    4) --> V(    2) amplitude = -0.6790 beta

 Excited state   8: excitation energy (eV) =   11.5796
 Total energy for state  8:                   -76.01571116 au
    <S**2>     :  0.0000
    Trans. Mom.:  0.3633 X  -0.1040 Y  -0.1962 Z
    Strength   :     0.0514381416
    D(    4) --> V(    2) amplitude =  0.7015 alpha
    D(    4) --> V(    2) amplitude =  0.7015 beta

 Excited state   9: excitation energy (eV) =   12.7523
 Total energy for state  9:                   -75.97261360 au
    <S**2>     :  2.0000
    Trans. Mom.: -0.0000 X   0.0000 Y   0.0000 Z
    Strength   :     0.0000000000
    D(    3) --> V(    1) amplitude = -0.6883 alpha
    D(    3) --> V(    1) amplitude =  0.6883 beta

 Excited state  10: excitation energy (eV) =   13.4640
 Total energy for state 10:                   -75.94645950 au
    <S**2>     :  0.0000
    Trans. Mom.: -0.6671 X   0.1905 Y   0.3578 Z
    Strength   :     0.2009845370
    D(    3) --> V(    1) amplitude =  0.7028 alpha
    D(    3) --> V(    1) amplitude =  0.7028 beta

 ---------------------------------------------------

 Direct TDDFT calculation will be performed
 Exchange:     0.1957 Hartree-Fock + 1.0000 wB97X-D3 + LR-HF
 Correlation:  1.0000 wB97X-D3
 Using SG-2 standard quadrature grid
 Dispersion:   Grimme D3
 ---------------------------------------------------
 Iter    Rts Conv    Rts Left    Ttl Dev     Max Dev
 ---------------------------------------------------
   1         0          10      0.020415    0.002408
   2         0          10      0.006365    0.001134
   3         0          10      0.001565    0.000226
   4         0          10      0.000701    0.000113
   5         0          10      0.000183    0.000037
   6         3           7      0.000050    0.000014
   7         5           5      0.000015    0.000004
   8         9           1      0.000008    0.000002
   9        10           0      0.000006    0.000001    Roots Converged
 ---------------------------------------------------

 ---------------------------------------------------
             TDDFT Excitation Energies
 ---------------------------------------------------

 Excited state   1: excitation energy (eV) =    7.1232
 Total energy for state  1:                   -76.17948063 au
    Trans. Mom.: -0.0000 X  -0.0000 Y   0.0000 Z
    Strength   :     0.0000000000
    X: D(    5) --> V(    1) amplitude =  0.6979 alpha
    X: D(    5) --> V(    1) amplitude = -0.6979 beta

 Excited state   2: excitation energy (eV) =    7.5725
 Total energy for state  2:                   -76.16297039 au
    Trans. Mom.: -0.0870 X  -0.5098 Y   0.1093 Z
    Strength   :     0.0518397939
    X: D(    5) --> V(    1) amplitude =  0.7041 alpha
    X: D(    5) --> V(    1) amplitude =  0.7041 beta

 Excited state   3: excitation energy (eV) =    9.0177
 Total energy for state  3:                   -76.10986011 au
    Trans. Mom.:  0.0000 X   0.0000 Y   0.0000 Z
    Strength   :     0.0000000000
    X: D(    5) --> V(    2) amplitude = -0.6883 alpha
    X: D(    5) --> V(    2) amplitude =  0.6883 beta

 Excited state   4: excitation energy (eV) =    9.1931
 Total energy for state  4:                   -76.10341438 au
    Trans. Mom.: -0.0000 X  -0.0000 Y  -0.0000 Z
    Strength   :     0.0000000000
    X: D(    4) --> V(    1) amplitude =  0.6963 alpha
    X: D(    4) --> V(    1) amplitude = -0.6963 beta

 Excited state   5: excitation energy (eV) =    9.2908
 Total energy for state  5:                   -76.09982099 au
    Trans. Mom.:  0.0002 X   0.0014 Y  -0.0003 Z
    Strength   :     0.0000004614
    X: D(    5) --> V(    2) amplitude =  0.6960 alpha
    X: D(    5) --> V(    2) amplitude =  0.6960 beta

 Excited state   6: excitation energy (eV) =    9.7830
 Total energy for state  6:                   -76.08173388 au
    Trans. Mom.:  0.3288 X   0.0667 Y   0.5726 Z
    Strength   :     0.1055652829
    X: D(    4) --> V(    1) amplitude =  0.7025 alpha
    X: D(    4) --> V(    1) amplitude =  0.7025 beta

 Excited state   7: excitation energy (eV) =   10.9639
 Total energy for state  7:                   -76.03833772 au
    Trans. Mom.:  0.0000 X  -0.0000 Y  -0.0000 Z
    Strength   :     0.0000000000
    X: D(    4) --> V(    2) amplitude =  0.6766 alpha
    X: D(    4) --> V(    3) amplitude =  0.1542 alpha
    X: D(    4) --> V(    2) amplitude = -0.6766 beta
    X: D(    4) --> V(    3) amplitude = -0.1542 beta

 Excited state   8: excitation energy (eV) =   11.5480
 Total energy for state  8:                   -76.01687123 au
    Trans. Mom.:  0.3470 X  -0.0994 Y  -0.1875 Z
    Strength   :     0.0468074997
    X: D(    4) --> V(    2) amplitude =  0.7015 alpha
    X: D(    4) --> V(    2) amplitude =  0.7015 beta

 Excited state   9: excitation energy (eV) =   12.7129
 Total energy for state  9:                   -75.97406346 au
    Trans. Mom.: -0.0000 X   0.0000 Y   0.0000 Z
    Strength   :     0.0000000000
    X: D(    3) --> V(    1) amplitude = -0.6863 alpha
    X: D(    3) --> V(    1) amplitude =  0.6863 beta

 Excited state  10: excitation energy (eV) =   13.4375
 Total energy for state 10:                   -75.94743304 au
    Trans. Mom.: -0.6498 X   0.1856 Y   0.3486 Z
    Strength   :     0.1903667239
    X: D(    3) --> V(    1) amplitude =  0.7032 alpha
    X: D(    3) --> V(    1) amplitude =  0.7032 beta

 ---------------------------------------------------
  SETman timing summary (seconds)
  CPU time                 7.68s
  System time              0.00s
  Wall time                8.20s
================================================================================
                             Excited State Analysis
================================================================================

  Ground State (Reference) :
  -------------------------
    NOs (alpha)
      Occupation of frontier NOs:
         0.0000   1.0000
      Number of electrons:  5.000000
    NOs (beta)
      Occupation of frontier NOs:
         0.0000   1.0000
      Number of electrons:  5.000000
    NOs (spin-traced)
      Occupation of frontier NOs:
         0.0000   2.0000
      Number of electrons: 10.000000
      Number of unpaired electrons: n_u =  0.00000, n_u,nl =  0.00000

    Mulliken Population Analysis
    Atom      Charge (e)        Spin (e)
    ------------------------------------
     1 H        0.230554        0.000000
     2 O       -0.460460        0.000000
     3 H        0.229906        0.000000
    ------------------------------------
    Sum:        0.000000        0.000000

    Multipole moment analysis of the density matrix
      Molecular charge:                      0.000000
      Number of electrons:                   10.000000
        Center of electronic charge [Ang]: [  2.290492,   1.555131,  -0.108525]
      Total nuclear charge:                  10.000000
        Center of nuclear charge [Ang]:    [  2.269759,   1.550894,  -0.144757]
      Dipole moment [D]:                     2.015378
        Cartesian components [D]:          [ -0.995831,  -0.203503,  -1.740304]
      RMS size of the density [Ang]:         0.747014
        Cartesian components [Ang]:        [  0.451777,   0.403206,   0.437437]


  ----------------------------------------------------------------------------
                  Analysis of Unrelaxed Density Matrices
  ----------------------------------------------------------------------------

  Excited State 1 :
  -------------------------
    NOs (alpha)
      Occupation of frontier NOs:
         0.4996   0.5003
      Number of electrons:  5.000000
    NOs (beta)
      Occupation of frontier NOs:
         0.4996   0.5003
      Number of electrons:  5.000000
    NOs (spin-traced)
      Occupation of frontier NOs:
         0.9991   1.0007
      Number of electrons: 10.000000
      Number of unpaired electrons: n_u =  2.00012, n_u,nl =  2.00000
      NO participation ratio (PR_NO):  2.003363


    Mulliken Population Analysis
    Atom  Charge (e)    Spin (e)  h+ (alpha)   h+ (beta)  e- (alpha)   e- (beta)
    ----------------------------------------------------------------------------
     1 H   -0.272264    0.000000    0.008484    0.008484   -0.259893   -0.259893
     2 O    0.541008    0.000000    0.483823    0.483823    0.016911    0.016911
     3 H   -0.268744   -0.000000    0.008503    0.008503   -0.257828   -0.257828
    ----------------------------------------------------------------------------
    Sum:    0.000000    0.000000    0.500810    0.500810   -0.500810   -0.500810

    Multipole moment analysis of the density matrix
      Molecular charge:                      0.000000
      Number of electrons:                   10.000000
        Center of electronic charge [Ang]: [  2.256810,   1.548385,  -0.166743]
      Total nuclear charge:                  10.000000
        Center of nuclear charge [Ang]:    [  2.269759,   1.550894,  -0.144757]
      Dipole moment [D]:                     1.231477
        Cartesian components [D]:          [  0.621980,   0.120499,   1.056010]
      RMS size of the density [Ang]:         0.933713
        Cartesian components [Ang]:        [  0.583184,   0.469983,   0.557523]

    Exciton analysis of the difference density matrix
    Total:
      <r_h> [Ang]:                  [  2.311708,   1.559437,  -0.071560]
      <r_e> [Ang]:                  [  1.975434,   1.492090,  -0.652796]
      |<r_e - r_h>| [Ang]:            0.674870
      Hole size [Ang]:                0.827901
        Cartesian components [Ang]: [  0.389995,   0.616872,   0.390887]
      Electron size [Ang]:            1.861783
        Cartesian components [Ang]: [  1.192652,   0.979373,   1.041463]

    Alpha spin:
      <r_h> [Ang]:                  [  2.311708,   1.559437,  -0.071560]
      <r_e> [Ang]:                  [  1.975434,   1.492090,  -0.652796]
      |<r_e - r_h>| [Ang]:            0.674870
      Hole size [Ang]:                0.827901
        Cartesian components [Ang]: [  0.389995,   0.616872,   0.390887]
      Electron size [Ang]:            1.861783
        Cartesian components [Ang]: [  1.192652,   0.979373,   1.041463]

    Beta spin:
      <r_h> [Ang]:                  [  2.311708,   1.559437,  -0.071560]
      <r_e> [Ang]:                  [  1.975434,   1.492090,  -0.652796]
      |<r_e - r_h>| [Ang]:            0.674870
      Hole size [Ang]:                0.827901
        Cartesian components [Ang]: [  0.389995,   0.616872,   0.390887]
      Electron size [Ang]:            1.861783
        Cartesian components [Ang]: [  1.192652,   0.979373,   1.041463]

  Excited State 2 :
  -------------------------
    NOs (alpha)
      Occupation of frontier NOs:
         0.4996   0.5003
      Number of electrons:  5.000000
    NOs (beta)
      Occupation of frontier NOs:
         0.4996   0.5003
      Number of electrons:  5.000000
    NOs (spin-traced)
      Occupation of frontier NOs:
         0.9992   1.0006
      Number of electrons: 10.000000
      Number of unpaired electrons: n_u =  1.99930, n_u,nl =  2.00000
      NO participation ratio (PR_NO):  2.001426


    Mulliken Population Analysis
    Atom  Charge (e)    Spin (e)  h+ (alpha)   h+ (beta)  e- (alpha)   e- (beta)
    ----------------------------------------------------------------------------
     1 H   -0.283169    0.000000    0.008448    0.008448   -0.265310   -0.265310
     2 O    0.562822   -0.000000    0.483616    0.483616    0.028025    0.028025
     3 H   -0.279653    0.000000    0.008468    0.008468   -0.263247   -0.263247
    ----------------------------------------------------------------------------
    Sum:    0.000000    0.000000    0.500532    0.500532   -0.500532   -0.500532

    Multipole moment analysis of the density matrix
      Molecular charge:                      0.000000
      Number of electrons:                   10.000000
        Center of electronic charge [Ang]: [  2.254976,   1.548012,  -0.169952]
      Total nuclear charge:                  10.000000
        Center of nuclear charge [Ang]:    [  2.269759,   1.550894,  -0.144757]
      Dipole moment [D]:                     1.409928
        Cartesian components [D]:          [  0.710060,   0.138451,   1.210183]
      RMS size of the density [Ang]:         0.950243
        Cartesian components [Ang]:        [  0.591568,   0.481035,   0.567111]

    Exciton analysis of the difference density matrix
    Total:
      <r_h> [Ang]:                  [  2.311785,   1.559453,  -0.071430]
      <r_e> [Ang]:                  [  1.957005,   1.488336,  -0.685052]
      |<r_e - r_h>| [Ang]:            0.712361
      Hole size [Ang]:                0.827946
        Cartesian components [Ang]: [  0.389955,   0.616973,   0.390864]
      Electron size [Ang]:            1.932808
        Cartesian components [Ang]: [  1.229171,   1.031590,   1.077362]

    Alpha spin:
      <r_h> [Ang]:                  [  2.311785,   1.559453,  -0.071430]
      <r_e> [Ang]:                  [  1.957005,   1.488336,  -0.685052]
      |<r_e - r_h>| [Ang]:            0.712361
      Hole size [Ang]:                0.827946
        Cartesian components [Ang]: [  0.389955,   0.616973,   0.390864]
      Electron size [Ang]:            1.932808
        Cartesian components [Ang]: [  1.229171,   1.031590,   1.077362]

    Beta spin:
      <r_h> [Ang]:                  [  2.311785,   1.559453,  -0.071430]
      <r_e> [Ang]:                  [  1.957005,   1.488336,  -0.685052]
      |<r_e - r_h>| [Ang]:            0.712361
      Hole size [Ang]:                0.827946
        Cartesian components [Ang]: [  0.389955,   0.616973,   0.390864]
      Electron size [Ang]:            1.932808
        Cartesian components [Ang]: [  1.229171,   1.031590,   1.077362]

  Excited State 3 :
  -------------------------
    NOs (alpha)
      Occupation of frontier NOs:
         0.4998   0.5001
      Number of electrons:  5.000000
    NOs (beta)
      Occupation of frontier NOs:
         0.4998   0.5001
      Number of electrons:  5.000000
    NOs (spin-traced)
      Occupation of frontier NOs:
         0.9996   1.0003
      Number of electrons: 10.000000
      Number of unpaired electrons: n_u =  2.00096, n_u,nl =  2.00000
      NO participation ratio (PR_NO):  2.003299


    Mulliken Population Analysis
    Atom  Charge (e)    Spin (e)  h+ (alpha)   h+ (beta)  e- (alpha)   e- (beta)
    ----------------------------------------------------------------------------
     1 H   -0.291180    0.000000    0.008492    0.008492   -0.269360   -0.269360
     2 O    0.588170   -0.000000    0.483579    0.483579    0.040735    0.040735
     3 H   -0.296990    0.000000    0.008512    0.008512   -0.271960   -0.271960
    ----------------------------------------------------------------------------
    Sum:    0.000000    0.000000    0.500584    0.500584   -0.500584   -0.500584

    Multipole moment analysis of the density matrix
      Molecular charge:                      0.000000
      Number of electrons:                   10.000000
        Center of electronic charge [Ang]: [  2.254024,   1.547500,  -0.173092]
      Total nuclear charge:                  10.000000
        Center of nuclear charge [Ang]:    [  2.269759,   1.550894,  -0.144757]
      Dipole moment [D]:                     1.565289
        Cartesian components [D]:          [  0.755798,   0.163020,   1.361001]
      RMS size of the density [Ang]:         0.991391
        Cartesian components [Ang]:        [  0.658415,   0.465752,   0.576560]

    Exciton analysis of the difference density matrix
    Total:
      <r_h> [Ang]:                  [  2.311751,   1.559451,  -0.071493]
      <r_e> [Ang]:                  [  1.947497,   1.483232,  -0.716414]
      |<r_e - r_h>| [Ang]:            0.744589
      Hole size [Ang]:                0.827979
        Cartesian components [Ang]: [  0.390136,   0.616866,   0.390920]
      Electron size [Ang]:            2.119876
        Cartesian components [Ang]: [  1.529608,   0.958548,   1.111467]

    Alpha spin:
      <r_h> [Ang]:                  [  2.311751,   1.559451,  -0.071493]
      <r_e> [Ang]:                  [  1.947497,   1.483232,  -0.716414]
      |<r_e - r_h>| [Ang]:            0.744589
      Hole size [Ang]:                0.827979
        Cartesian components [Ang]: [  0.390136,   0.616866,   0.390920]
      Electron size [Ang]:            2.119876
        Cartesian components [Ang]: [  1.529608,   0.958548,   1.111467]

    Beta spin:
      <r_h> [Ang]:                  [  2.311751,   1.559451,  -0.071493]
      <r_e> [Ang]:                  [  1.947497,   1.483232,  -0.716414]
      |<r_e - r_h>| [Ang]:            0.744589
      Hole size [Ang]:                0.827979
        Cartesian components [Ang]: [  0.390136,   0.616866,   0.390920]
      Electron size [Ang]:            2.119876
        Cartesian components [Ang]: [  1.529608,   0.958548,   1.111467]

  Excited State 4 :
  -------------------------
    NOs (alpha)
      Occupation of frontier NOs:
         0.4992   0.5007
      Number of electrons:  5.000000
    NOs (beta)
      Occupation of frontier NOs:
         0.4992   0.5007
      Number of electrons:  5.000000
    NOs (spin-traced)
      Occupation of frontier NOs:
         0.9984   1.0013
      Number of electrons: 10.000000
      Number of unpaired electrons: n_u =  2.00542, n_u,nl =  2.00008
      NO participation ratio (PR_NO):  2.016781


    Mulliken Population Analysis
    Atom  Charge (e)    Spin (e)  h+ (alpha)   h+ (beta)  e- (alpha)   e- (beta)
    ----------------------------------------------------------------------------
     1 H   -0.218494    0.000000    0.037799    0.037799   -0.262323   -0.262323
     2 O    0.432006   -0.000000    0.426015    0.426015    0.020217    0.020217
     3 H   -0.213512    0.000000    0.037542    0.037542   -0.259250   -0.259250
    ----------------------------------------------------------------------------
    Sum:    0.000000   -0.000000    0.501356    0.501356   -0.501356   -0.501356

    Multipole moment analysis of the density matrix
      Molecular charge:                      -0.000000
      Number of electrons:                   10.000000
        Center of electronic charge [Ang]: [  2.252926,   1.547645,  -0.173297]
      Total nuclear charge:                  10.000000
        Center of nuclear charge [Ang]:    [  2.269759,   1.550894,  -0.144757]
      Dipole moment [D]:                     1.599139
        Cartesian components [D]:          [  0.808505,   0.156075,   1.370841]
      RMS size of the density [Ang]:         0.928827
        Cartesian components [Ang]:        [  0.574607,   0.493896,   0.537229]

    Exciton analysis of the difference density matrix
    Total:
      <r_h> [Ang]:                  [  2.344736,   1.566327,  -0.013153]
      <r_e> [Ang]:                  [  1.970099,   1.491668,  -0.659124]
      |<r_e - r_h>| [Ang]:            0.750470
      Hole size [Ang]:                0.862881
        Cartesian components [Ang]: [  0.497485,   0.373596,   0.597911]
      Electron size [Ang]:            1.855271
        Cartesian components [Ang]: [  1.191280,   0.973451,   1.036956]

    Alpha spin:
      <r_h> [Ang]:                  [  2.344736,   1.566327,  -0.013153]
      <r_e> [Ang]:                  [  1.970099,   1.491668,  -0.659124]
      |<r_e - r_h>| [Ang]:            0.750470
      Hole size [Ang]:                0.862881
        Cartesian components [Ang]: [  0.497485,   0.373596,   0.597911]
      Electron size [Ang]:            1.855271
        Cartesian components [Ang]: [  1.191280,   0.973451,   1.036956]

    Beta spin:
      <r_h> [Ang]:                  [  2.344736,   1.566327,  -0.013153]
      <r_e> [Ang]:                  [  1.970099,   1.491668,  -0.659124]
      |<r_e - r_h>| [Ang]:            0.750470
      Hole size [Ang]:                0.862881
        Cartesian components [Ang]: [  0.497485,   0.373596,   0.597911]
      Electron size [Ang]:            1.855271
        Cartesian components [Ang]: [  1.191280,   0.973451,   1.036956]

  Excited State 5 :
  -------------------------
    NOs (alpha)
      Occupation of frontier NOs:
         0.4999   0.5000
      Number of electrons:  5.000000
    NOs (beta)
      Occupation of frontier NOs:
         0.4999   0.5000
      Number of electrons:  5.000000
    NOs (spin-traced)
      Occupation of frontier NOs:
         0.9999   1.0001
      Number of electrons: 10.000000
      Number of unpaired electrons: n_u =  2.00012, n_u,nl =  2.00000
      NO participation ratio (PR_NO):  2.000707


    Mulliken Population Analysis
    Atom  Charge (e)    Spin (e)  h+ (alpha)   h+ (beta)  e- (alpha)   e- (beta)
    ----------------------------------------------------------------------------
     1 H   -0.302859   -0.000000    0.008443    0.008443   -0.275149   -0.275149
     2 O    0.611303    0.000000    0.483241    0.483241    0.052641    0.052641
     3 H   -0.308445   -0.000000    0.008462    0.008462   -0.277637   -0.277637
    ----------------------------------------------------------------------------
    Sum:    0.000000   -0.000000    0.500146    0.500146   -0.500146   -0.500146

    Multipole moment analysis of the density matrix
      Molecular charge:                      0.000000
      Number of electrons:                   10.000000
        Center of electronic charge [Ang]: [  2.253077,   1.547315,  -0.174712]
      Total nuclear charge:                  10.000000
        Center of nuclear charge [Ang]:    [  2.269759,   1.550894,  -0.144757]
      Dipole moment [D]:                     1.655810
        Cartesian components [D]:          [  0.801256,   0.171926,   1.438797]
      RMS size of the density [Ang]:         1.007135
        Cartesian components [Ang]:        [  0.670110,   0.473134,   0.584309]

    Exciton analysis of the difference density matrix
    Total:
      <r_h> [Ang]:                  [  2.311773,   1.559452,  -0.071451]
      <r_e> [Ang]:                  [  1.937739,   1.481313,  -0.733129]
      |<r_e - r_h>| [Ang]:            0.764084
      Hole size [Ang]:                0.827947
        Cartesian components [Ang]: [  0.389955,   0.616987,   0.390844]
      Electron size [Ang]:            2.187991
        Cartesian components [Ang]: [  1.578232,   0.994220,   1.143685]

    Alpha spin:
      <r_h> [Ang]:                  [  2.311773,   1.559452,  -0.071451]
      <r_e> [Ang]:                  [  1.937739,   1.481313,  -0.733129]
      |<r_e - r_h>| [Ang]:            0.764084
      Hole size [Ang]:                0.827947
        Cartesian components [Ang]: [  0.389955,   0.616987,   0.390844]
      Electron size [Ang]:            2.187991
        Cartesian components [Ang]: [  1.578232,   0.994220,   1.143685]

    Beta spin:
      <r_h> [Ang]:                  [  2.311773,   1.559452,  -0.071451]
      <r_e> [Ang]:                  [  1.937739,   1.481313,  -0.733129]
      |<r_e - r_h>| [Ang]:            0.764084
      Hole size [Ang]:                0.827947
        Cartesian components [Ang]: [  0.389955,   0.616987,   0.390844]
      Electron size [Ang]:            2.187991
        Cartesian components [Ang]: [  1.578232,   0.994220,   1.143685]

  Excited State 6 :
  -------------------------
    NOs (alpha)
      Occupation of frontier NOs:
         0.4969   0.5031
      Number of electrons:  5.000000
    NOs (beta)
      Occupation of frontier NOs:
         0.4969   0.5031
      Number of electrons:  5.000000
    NOs (spin-traced)
      Occupation of frontier NOs:
         0.9937   1.0061
      Number of electrons: 10.000000
      Number of unpaired electrons: n_u =  2.00386, n_u,nl =  2.00007
      NO participation ratio (PR_NO):  2.032830


    Mulliken Population Analysis
    Atom  Charge (e)    Spin (e)  h+ (alpha)   h+ (beta)  e- (alpha)   e- (beta)
    ----------------------------------------------------------------------------
     1 H   -0.241874   -0.000000    0.033666    0.033666   -0.269880   -0.269880
     2 O    0.481196    0.000000    0.433676    0.433676    0.037152    0.037152
     3 H   -0.239322   -0.000000    0.033624    0.033624   -0.268238   -0.268238
    ----------------------------------------------------------------------------
    Sum:    0.000000    0.000000    0.500966    0.500966   -0.500966   -0.500966

    Multipole moment analysis of the density matrix
      Molecular charge:                      0.000000
      Number of electrons:                   10.000000
        Center of electronic charge [Ang]: [  2.253308,   1.547640,  -0.173014]
      Total nuclear charge:                  10.000000
        Center of nuclear charge [Ang]:    [  2.269759,   1.550894,  -0.144757]
      Dipole moment [D]:                     1.578280
        Cartesian components [D]:          [  0.790183,   0.156299,   1.357259]
      RMS size of the density [Ang]:         0.950082
        Cartesian components [Ang]:        [  0.585910,   0.507754,   0.549136]

    Exciton analysis of the difference density matrix
    Total:
      <r_h> [Ang]:                  [  2.359767,   1.569323,   0.012743]
      <r_e> [Ang]:                  [  1.988647,   1.494559,  -0.630908]
      |<r_e - r_h>| [Ang]:            0.746731
      Hole size [Ang]:                0.855327
        Cartesian components [Ang]: [  0.491519,   0.375730,   0.590610]
      Electron size [Ang]:            1.969545
        Cartesian components [Ang]: [  1.248309,   1.043462,   1.109964]

    Alpha spin:
      <r_h> [Ang]:                  [  2.359767,   1.569323,   0.012743]
      <r_e> [Ang]:                  [  1.988647,   1.494559,  -0.630908]
      |<r_e - r_h>| [Ang]:            0.746731
      Hole size [Ang]:                0.855327
        Cartesian components [Ang]: [  0.491519,   0.375730,   0.590610]
      Electron size [Ang]:            1.969545
        Cartesian components [Ang]: [  1.248309,   1.043462,   1.109964]

    Beta spin:
      <r_h> [Ang]:                  [  2.359767,   1.569323,   0.012743]
      <r_e> [Ang]:                  [  1.988647,   1.494559,  -0.630908]
      |<r_e - r_h>| [Ang]:            0.746731
      Hole size [Ang]:                0.855327
        Cartesian components [Ang]: [  0.491519,   0.375730,   0.590610]
      Electron size [Ang]:            1.969545
        Cartesian components [Ang]: [  1.248309,   1.043462,   1.109964]

  Excited State 7 :
  -------------------------
    NOs (alpha)
      Occupation of frontier NOs:
         0.4902   0.5097
      Number of electrons:  5.000000
    NOs (beta)
      Occupation of frontier NOs:
         0.4902   0.5097
      Number of electrons:  5.000000
    NOs (spin-traced)
      Occupation of frontier NOs:
         0.9804   1.0193
      Number of electrons: 10.000000
      Number of unpaired electrons: n_u =  2.00541, n_u,nl =  2.00217
      NO participation ratio (PR_NO):  2.090472


    Mulliken Population Analysis
    Atom  Charge (e)    Spin (e)  h+ (alpha)   h+ (beta)  e- (alpha)   e- (beta)
    ----------------------------------------------------------------------------
     1 H   -0.229283   -0.000000    0.037057    0.037057   -0.266976   -0.266976
     2 O    0.466761    0.000000    0.427360    0.427360    0.036251    0.036251
     3 H   -0.237478   -0.000000    0.036935    0.036935   -0.270627   -0.270627
    ----------------------------------------------------------------------------
    Sum:    0.000000   -0.000000    0.501353    0.501353   -0.501353   -0.501353

    Multipole moment analysis of the density matrix
      Molecular charge:                      0.000000
      Number of electrons:                   10.000000
        Center of electronic charge [Ang]: [  2.250575,   1.546716,  -0.179492]
      Total nuclear charge:                  10.000000
        Center of nuclear charge [Ang]:    [  2.269759,   1.550894,  -0.144757]
      Dipole moment [D]:                     1.916470
        Cartesian components [D]:          [  0.921424,   0.200661,   1.668403]
      RMS size of the density [Ang]:         0.978422
        Cartesian components [Ang]:        [  0.643398,   0.486988,   0.553345]

    Exciton analysis of the difference density matrix
    Total:
      <r_h> [Ang]:                  [  2.349369,   1.567221,  -0.005281]
      <r_e> [Ang]:                  [  1.951284,   1.483303,  -0.713040]
      |<r_e - r_h>| [Ang]:            0.816355
      Hole size [Ang]:                0.860981
        Cartesian components [Ang]: [  0.498346,   0.374083,   0.594139]
      Electron size [Ang]:            2.078160
        Cartesian components [Ang]: [  1.498519,   0.937784,   1.092589]

    Alpha spin:
      <r_h> [Ang]:                  [  2.349369,   1.567221,  -0.005281]
      <r_e> [Ang]:                  [  1.951284,   1.483303,  -0.713040]
      |<r_e - r_h>| [Ang]:            0.816355
      Hole size [Ang]:                0.860981
        Cartesian components [Ang]: [  0.498346,   0.374083,   0.594139]
      Electron size [Ang]:            2.078160
        Cartesian components [Ang]: [  1.498519,   0.937784,   1.092589]

    Beta spin:
      <r_h> [Ang]:                  [  2.349369,   1.567221,  -0.005281]
      <r_e> [Ang]:                  [  1.951284,   1.483303,  -0.713040]
      |<r_e - r_h>| [Ang]:            0.816355
      Hole size [Ang]:                0.860981
        Cartesian components [Ang]: [  0.498346,   0.374083,   0.594139]
      Electron size [Ang]:            2.078160
        Cartesian components [Ang]: [  1.498519,   0.937784,   1.092589]

  Excited State 8 :
  -------------------------
    NOs (alpha)
      Occupation of frontier NOs:
         0.4991   0.5008
      Number of electrons:  5.000000
    NOs (beta)
      Occupation of frontier NOs:
         0.4991   0.5008
      Number of electrons:  5.000000
    NOs (spin-traced)
      Occupation of frontier NOs:
         0.9982   1.0016
      Number of electrons: 10.000000
      Number of unpaired electrons: n_u =  2.00267, n_u,nl =  2.00003
      NO participation ratio (PR_NO):  2.012158


    Mulliken Population Analysis
    Atom  Charge (e)    Spin (e)  h+ (alpha)   h+ (beta)  e- (alpha)   e- (beta)
    ----------------------------------------------------------------------------
     1 H   -0.250530    0.000000    0.036316    0.036316   -0.276858   -0.276858
     2 O    0.505834   -0.000000    0.428118    0.428118    0.055029    0.055029
     3 H   -0.255304    0.000000    0.036233    0.036233   -0.278838   -0.278838
    ----------------------------------------------------------------------------
    Sum:    0.000000   -0.000000    0.500667    0.500667   -0.500667   -0.500667

    Multipole moment analysis of the density matrix
      Molecular charge:                      0.000000
      Number of electrons:                   10.000000
        Center of electronic charge [Ang]: [  2.249186,   1.546547,  -0.181386]
      Total nuclear charge:                  10.000000
        Center of nuclear charge [Ang]:    [  2.269759,   1.550894,  -0.144757]
      Dipole moment [D]:                     2.028667
        Cartesian components [D]:          [  0.988173,   0.208793,   1.759378]
      RMS size of the density [Ang]:         1.019363
        Cartesian components [Ang]:        [  0.674938,   0.505847,   0.572431]

    Exciton analysis of the difference density matrix
    Total:
      <r_h> [Ang]:                  [  2.349918,   1.567321,  -0.004409]
      <r_e> [Ang]:                  [  1.937410,   1.481598,  -0.732052]
      |<r_e - r_h>| [Ang]:            0.840818
      Hole size [Ang]:                0.860625
        Cartesian components [Ang]: [  0.495363,   0.374054,   0.596133]
      Electron size [Ang]:            2.260846
        Cartesian components [Ang]: [  1.628597,   1.033055,   1.179785]

    Alpha spin:
      <r_h> [Ang]:                  [  2.349918,   1.567321,  -0.004409]
      <r_e> [Ang]:                  [  1.937410,   1.481598,  -0.732052]
      |<r_e - r_h>| [Ang]:            0.840818
      Hole size [Ang]:                0.860625
        Cartesian components [Ang]: [  0.495363,   0.374054,   0.596133]
      Electron size [Ang]:            2.260846
        Cartesian components [Ang]: [  1.628597,   1.033055,   1.179785]

    Beta spin:
      <r_h> [Ang]:                  [  2.349918,   1.567321,  -0.004409]
      <r_e> [Ang]:                  [  1.937410,   1.481598,  -0.732052]
      |<r_e - r_h>| [Ang]:            0.840818
      Hole size [Ang]:                0.860625
        Cartesian components [Ang]: [  0.495363,   0.374054,   0.596133]
      Electron size [Ang]:            2.260846
        Cartesian components [Ang]: [  1.628597,   1.033055,   1.179785]

  Excited State 9 :
  -------------------------
    NOs (alpha)
      Occupation of frontier NOs:
         0.4878   0.5121
      Number of electrons:  5.000000
    NOs (beta)
      Occupation of frontier NOs:
         0.4878   0.5121
      Number of electrons:  5.000000
    NOs (spin-traced)
      Occupation of frontier NOs:
         0.9756   1.0241
      Number of electrons: 10.000000
      Number of unpaired electrons: n_u =  2.00428, n_u,nl =  2.00243
      NO participation ratio (PR_NO):  2.108419


    Mulliken Population Analysis
    Atom  Charge (e)    Spin (e)  h+ (alpha)   h+ (beta)  e- (alpha)   e- (beta)
    ----------------------------------------------------------------------------
     1 H   -0.106009    0.000000    0.094233    0.094233   -0.262515   -0.262515
     2 O    0.203416   -0.000000    0.312600    0.312600    0.019338    0.019338
     3 H   -0.097407    0.000000    0.094238    0.094238   -0.257894   -0.257894
    ----------------------------------------------------------------------------
    Sum:    0.000000    0.000000    0.501071    0.501071   -0.501071   -0.501071

    Multipole moment analysis of the density matrix
      Molecular charge:                      0.000000
      Number of electrons:                   10.000000
        Center of electronic charge [Ang]: [  2.265086,   1.550222,  -0.151597]
      Total nuclear charge:                  10.000000
        Center of nuclear charge [Ang]:    [  2.269759,   1.550894,  -0.144757]
      Dipole moment [D]:                     0.399205
        Cartesian components [D]:          [  0.224465,   0.032257,   0.328542]
      RMS size of the density [Ang]:         0.927123
        Cartesian components [Ang]:        [  0.563265,   0.491665,   0.548229]

    Exciton analysis of the difference density matrix
    Total:
      <r_h> [Ang]:                  [  2.225643,   1.542165,  -0.220566]
      <r_e> [Ang]:                  [  1.972127,   1.493186,  -0.650367]
      |<r_e - r_h>| [Ang]:            0.501397
      Hole size [Ang]:                0.887630
        Cartesian components [Ang]: [  0.636726,   0.378163,   0.489346]
      Electron size [Ang]:            1.854738
        Cartesian components [Ang]: [  1.201642,   0.964092,   1.032781]

    Alpha spin:
      <r_h> [Ang]:                  [  2.225643,   1.542165,  -0.220566]
      <r_e> [Ang]:                  [  1.972127,   1.493186,  -0.650367]
      |<r_e - r_h>| [Ang]:            0.501397
      Hole size [Ang]:                0.887630
        Cartesian components [Ang]: [  0.636726,   0.378163,   0.489346]
      Electron size [Ang]:            1.854738
        Cartesian components [Ang]: [  1.201642,   0.964092,   1.032781]

    Beta spin:
      <r_h> [Ang]:                  [  2.225643,   1.542165,  -0.220566]
      <r_e> [Ang]:                  [  1.972127,   1.493186,  -0.650367]
      |<r_e - r_h>| [Ang]:            0.501397
      Hole size [Ang]:                0.887630
        Cartesian components [Ang]: [  0.636726,   0.378163,   0.489346]
      Electron size [Ang]:            1.854738
        Cartesian components [Ang]: [  1.201642,   0.964092,   1.032781]

  Excited State 10 :
  -------------------------
    NOs (alpha)
      Occupation of frontier NOs:
         0.4968   0.5030
      Number of electrons:  5.000000
    NOs (beta)
      Occupation of frontier NOs:
         0.4968   0.5030
      Number of electrons:  5.000000
    NOs (spin-traced)
      Occupation of frontier NOs:
         0.9937   1.0061
      Number of electrons: 10.000000
      Number of unpaired electrons: n_u =  2.00206, n_u,nl =  2.00021
      NO participation ratio (PR_NO):  2.029150


    Mulliken Population Analysis
    Atom  Charge (e)    Spin (e)  h+ (alpha)   h+ (beta)  e- (alpha)   e- (beta)
    ----------------------------------------------------------------------------
     1 H   -0.107441   -0.000000    0.095919    0.095919   -0.264917   -0.264917
     2 O    0.212358    0.000000    0.308737    0.308737    0.027672    0.027672
     3 H   -0.104917   -0.000000    0.095859    0.095859   -0.263270   -0.263270
    ----------------------------------------------------------------------------
    Sum:    0.000000   -0.000000    0.500515    0.500515   -0.500515   -0.500515

    Multipole moment analysis of the density matrix
      Molecular charge:                      0.000000
      Number of electrons:                   10.000000
        Center of electronic charge [Ang]: [  2.263057,   1.549613,  -0.156059]
      Total nuclear charge:                  10.000000
        Center of nuclear charge [Ang]:    [  2.269759,   1.550894,  -0.144757]
      Dipole moment [D]:                     0.634124
        Cartesian components [D]:          [  0.321896,   0.061507,   0.542875]
      RMS size of the density [Ang]:         0.951874
        Cartesian components [Ang]:        [  0.572563,   0.509700,   0.564306]

    Exciton analysis of the difference density matrix
    Total:
      <r_h> [Ang]:                  [  2.221157,   1.541133,  -0.228933]
      <r_e> [Ang]:                  [  1.947097,   1.486016,  -0.703789]
      |<r_e - r_h>| [Ang]:            0.551031
      Hole size [Ang]:                0.887551
        Cartesian components [Ang]: [  0.639499,   0.378037,   0.485671]
      Electron size [Ang]:            1.958919
        Cartesian components [Ang]: [  1.240704,   1.053478,   1.090047]

    Alpha spin:
      <r_h> [Ang]:                  [  2.221157,   1.541133,  -0.228933]
      <r_e> [Ang]:                  [  1.947097,   1.486016,  -0.703789]
      |<r_e - r_h>| [Ang]:            0.551031
      Hole size [Ang]:                0.887551
        Cartesian components [Ang]: [  0.639499,   0.378037,   0.485671]
      Electron size [Ang]:            1.958919
        Cartesian components [Ang]: [  1.240704,   1.053478,   1.090047]

    Beta spin:
      <r_h> [Ang]:                  [  2.221157,   1.541133,  -0.228933]
      <r_e> [Ang]:                  [  1.947097,   1.486016,  -0.703789]
      |<r_e - r_h>| [Ang]:            0.551031
      Hole size [Ang]:                0.887551
        Cartesian components [Ang]: [  0.639499,   0.378037,   0.485671]
      Electron size [Ang]:            1.958919
        Cartesian components [Ang]: [  1.240704,   1.053478,   1.090047]

  ----------------------------------------------------------------------------
                 Transition Density Matrix Analysis
  ----------------------------------------------------------------------------

  Excited State 1 :
  -------------------------

    CT numbers (Mulliken)
      omega =     1.0016 (alpha:     0.5008, beta:     0.5008)
      <Phe> =     0.0381 (alpha:     0.0381, beta:     0.0381)

    Exciton analysis of the transition density matrix
    Total:
      Trans. dipole moment [D]:             0.000000
        Cartesian components [D]:         [  0.000000,   0.000000,  -0.000000]
      <r_h> [Ang]:                        [  2.311634,   1.559422,  -0.071689]
      <r_e> [Ang]:                        [  1.975509,   1.492105,  -0.652667]
      |<r_e - r_h>| [Ang]:                  0.674572
      Hole size [Ang]:                      0.828288
        Cartesian components [Ang]:       [  0.390351,   0.616980,   0.391182]
      Electron size [Ang]:                  1.861664
        Cartesian components [Ang]:       [  1.192556,   0.979306,   1.041424]
      RMS electron-hole separation [Ang]:   2.141228
        Cartesian components [Ang]:       [  1.298435,   1.151196,   1.254460]
      Covariance(r_h, r_e) [Ang^2]:         0.011024
      Correlation coefficient:              0.007149
      Center-of-mass size [Ang]:            1.021507
        Cartesian components [Ang]:       [  0.627729,   0.582814,   0.556561]

    Alpha spin:
      Trans. dipole moment [D]:             0.643948
        Cartesian components [D]:         [  0.106069,   0.621037,  -0.133160]
      <r_h> [Ang]:                        [  2.311634,   1.559422,  -0.071689]
      <r_e> [Ang]:                        [  1.975509,   1.492105,  -0.652667]
      |<r_e - r_h>| [Ang]:                  0.674572
      Hole size [Ang]:                      0.828288
        Cartesian components [Ang]:       [  0.390351,   0.616980,   0.391182]
      Electron size [Ang]:                  1.861664
        Cartesian components [Ang]:       [  1.192556,   0.979306,   1.041424]
      RMS electron-hole separation [Ang]:   2.141228
        Cartesian components [Ang]:       [  1.298435,   1.151196,   1.254460]
      Covariance(r_h, r_e) [Ang^2]:         0.011024
      Correlation coefficient:              0.007149
      Center-of-mass size [Ang]:            1.021507
        Cartesian components [Ang]:       [  0.627729,   0.582814,   0.556561]

    Beta spin:
      Trans. dipole moment [D]:             0.643948
        Cartesian components [D]:         [ -0.106069,  -0.621037,   0.133160]
      <r_h> [Ang]:                        [  2.311634,   1.559422,  -0.071689]
      <r_e> [Ang]:                        [  1.975509,   1.492105,  -0.652667]
      |<r_e - r_h>| [Ang]:                  0.674572
      Hole size [Ang]:                      0.828288
        Cartesian components [Ang]:       [  0.390351,   0.616980,   0.391182]
      Electron size [Ang]:                  1.861664
        Cartesian components [Ang]:       [  1.192556,   0.979306,   1.041424]
      RMS electron-hole separation [Ang]:   2.141228
        Cartesian components [Ang]:       [  1.298435,   1.151196,   1.254460]
      Covariance(r_h, r_e) [Ang^2]:         0.011024
      Correlation coefficient:              0.007149
      Center-of-mass size [Ang]:            1.021507
        Cartesian components [Ang]:       [  0.627729,   0.582814,   0.556561]

  Excited State 2 :
  -------------------------

    CT numbers (Mulliken)
      omega =     1.0011 (alpha:     0.5005, beta:     0.5005)
      <Phe> =    -0.0230 (alpha:    -0.0230, beta:    -0.0230)

    Exciton analysis of the transition density matrix
    Total:
      Trans. dipole moment [D]:             1.343589
        Cartesian components [D]:         [  0.221046,   1.295819,  -0.277890]
      <r_h> [Ang]:                        [  2.311727,   1.559441,  -0.071529]
      <r_e> [Ang]:                        [  1.957062,   1.488347,  -0.684953]
      |<r_e - r_h>| [Ang]:                  0.712131
      Hole size [Ang]:                      0.828081
        Cartesian components [Ang]:       [  0.390126,   0.616966,   0.390990]
      Electron size [Ang]:                  1.932792
        Cartesian components [Ang]:       [  1.229133,   1.031595,   1.077372]
      RMS electron-hole separation [Ang]:   2.219123
        Cartesian components [Ang]:       [  1.336700,   1.203917,   1.299354]
      Covariance(r_h, r_e) [Ang^2]:         0.002016
      Correlation coefficient:              0.001259
      Center-of-mass size [Ang]:            1.051836
        Cartesian components [Ang]:       [  0.645165,   0.601105,   0.573406]

    Alpha spin:
      Trans. dipole moment [D]:             0.671794
        Cartesian components [D]:         [  0.110523,   0.647909,  -0.138945]
      <r_h> [Ang]:                        [  2.311727,   1.559441,  -0.071529]
      <r_e> [Ang]:                        [  1.957062,   1.488347,  -0.684953]
      |<r_e - r_h>| [Ang]:                  0.712131
      Hole size [Ang]:                      0.828081
        Cartesian components [Ang]:       [  0.390126,   0.616966,   0.390990]
      Electron size [Ang]:                  1.932792
        Cartesian components [Ang]:       [  1.229133,   1.031595,   1.077372]
      RMS electron-hole separation [Ang]:   2.219123
        Cartesian components [Ang]:       [  1.336700,   1.203917,   1.299354]
      Covariance(r_h, r_e) [Ang^2]:         0.002016
      Correlation coefficient:              0.001259
      Center-of-mass size [Ang]:            1.051836
        Cartesian components [Ang]:       [  0.645165,   0.601105,   0.573406]

    Beta spin:
      Trans. dipole moment [D]:             0.671794
        Cartesian components [D]:         [  0.110523,   0.647909,  -0.138945]
      <r_h> [Ang]:                        [  2.311727,   1.559441,  -0.071529]
      <r_e> [Ang]:                        [  1.957062,   1.488347,  -0.684953]
      |<r_e - r_h>| [Ang]:                  0.712131
      Hole size [Ang]:                      0.828081
        Cartesian components [Ang]:       [  0.390126,   0.616966,   0.390990]
      Electron size [Ang]:                  1.932792
        Cartesian components [Ang]:       [  1.229133,   1.031595,   1.077372]
      RMS electron-hole separation [Ang]:   2.219123
        Cartesian components [Ang]:       [  1.336700,   1.203917,   1.299354]
      Covariance(r_h, r_e) [Ang^2]:         0.002016
      Correlation coefficient:              0.001259
      Center-of-mass size [Ang]:            1.051836
        Cartesian components [Ang]:       [  0.645165,   0.601105,   0.573406]

  Excited State 3 :
  -------------------------

    CT numbers (Mulliken)
      omega =     1.0012 (alpha:     0.5006, beta:     0.5006)
      <Phe> =     0.0237 (alpha:     0.0237, beta:     0.0237)

    Exciton analysis of the transition density matrix
    Total:
      Trans. dipole moment [D]:             0.000000
        Cartesian components [D]:         [ -0.000000,  -0.000000,  -0.000000]
      <r_h> [Ang]:                        [  2.311710,   1.559443,  -0.071566]
      <r_e> [Ang]:                        [  1.947539,   1.483241,  -0.716341]
      |<r_e - r_h>| [Ang]:                  0.744420
      Hole size [Ang]:                      0.828241
        Cartesian components [Ang]:       [  0.390311,   0.617014,   0.391068]
      Electron size [Ang]:                  2.119803
        Cartesian components [Ang]:       [  1.529573,   0.958453,   1.111458]
      RMS electron-hole separation [Ang]:   2.393306
        Cartesian components [Ang]:       [  1.619501,   1.141331,   1.342569]
      Covariance(r_h, r_e) [Ang^2]:         0.002898
      Correlation coefficient:              0.001651
      Center-of-mass size [Ang]:            1.138568
        Cartesian components [Ang]:       [  0.789574,   0.570493,   0.589446]

    Alpha spin:
      Trans. dipole moment [D]:             0.002118
        Cartesian components [D]:         [ -0.000113,   0.001945,  -0.000832]
      <r_h> [Ang]:                        [  2.311710,   1.559443,  -0.071566]
      <r_e> [Ang]:                        [  1.947539,   1.483241,  -0.716341]
      |<r_e - r_h>| [Ang]:                  0.744420
      Hole size [Ang]:                      0.828241
        Cartesian components [Ang]:       [  0.390311,   0.617014,   0.391068]
      Electron size [Ang]:                  2.119803
        Cartesian components [Ang]:       [  1.529573,   0.958453,   1.111458]
      RMS electron-hole separation [Ang]:   2.393306
        Cartesian components [Ang]:       [  1.619501,   1.141331,   1.342569]
      Covariance(r_h, r_e) [Ang^2]:         0.002898
      Correlation coefficient:              0.001651
      Center-of-mass size [Ang]:            1.138568
        Cartesian components [Ang]:       [  0.789574,   0.570493,   0.589446]

    Beta spin:
      Trans. dipole moment [D]:             0.002118
        Cartesian components [D]:         [  0.000113,  -0.001945,   0.000832]
      <r_h> [Ang]:                        [  2.311710,   1.559443,  -0.071566]
      <r_e> [Ang]:                        [  1.947539,   1.483241,  -0.716341]
      |<r_e - r_h>| [Ang]:                  0.744420
      Hole size [Ang]:                      0.828241
        Cartesian components [Ang]:       [  0.390311,   0.617014,   0.391068]
      Electron size [Ang]:                  2.119803
        Cartesian components [Ang]:       [  1.529573,   0.958453,   1.111458]
      RMS electron-hole separation [Ang]:   2.393306
        Cartesian components [Ang]:       [  1.619501,   1.141331,   1.342569]
      Covariance(r_h, r_e) [Ang^2]:         0.002898
      Correlation coefficient:              0.001651
      Center-of-mass size [Ang]:            1.138568
        Cartesian components [Ang]:       [  0.789574,   0.570493,   0.589446]

  Excited State 4 :
  -------------------------

    CT numbers (Mulliken)
      omega =     1.0027 (alpha:     0.5014, beta:     0.5014)
      <Phe> =     0.0445 (alpha:     0.0445, beta:     0.0445)

    Exciton analysis of the transition density matrix
    Total:
      Trans. dipole moment [D]:             0.000000
        Cartesian components [D]:         [  0.000000,   0.000000,   0.000000]
      <r_h> [Ang]:                        [  2.344524,   1.566286,  -0.013513]
      <r_e> [Ang]:                        [  1.970311,   1.491709,  -0.658764]
      |<r_e - r_h>| [Ang]:                  0.749630
      Hole size [Ang]:                      0.863408
        Cartesian components [Ang]:       [  0.497916,   0.373697,   0.598250]
      Electron size [Ang]:                  1.855196
        Cartesian components [Ang]:       [  1.191166,   0.973415,   1.036985]
      RMS electron-hole separation [Ang]:   2.168844
        Cartesian components [Ang]:       [  1.335075,   1.044403,   1.353028]
      Covariance(r_h, r_e) [Ang^2]:         0.022642
      Correlation coefficient:              0.014135
      Center-of-mass size [Ang]:            1.028653
        Cartesian components [Ang]:       [  0.650232,   0.521814,   0.602525]

    Alpha spin:
      Trans. dipole moment [D]:             1.111644
        Cartesian components [D]:         [ -0.553466,  -0.111033,  -0.957653]
      <r_h> [Ang]:                        [  2.344524,   1.566286,  -0.013513]
      <r_e> [Ang]:                        [  1.970311,   1.491709,  -0.658764]
      |<r_e - r_h>| [Ang]:                  0.749630
      Hole size [Ang]:                      0.863408
        Cartesian components [Ang]:       [  0.497916,   0.373697,   0.598250]
      Electron size [Ang]:                  1.855196
        Cartesian components [Ang]:       [  1.191166,   0.973415,   1.036985]
      RMS electron-hole separation [Ang]:   2.168844
        Cartesian components [Ang]:       [  1.335075,   1.044403,   1.353028]
      Covariance(r_h, r_e) [Ang^2]:         0.022642
      Correlation coefficient:              0.014135
      Center-of-mass size [Ang]:            1.028653
        Cartesian components [Ang]:       [  0.650232,   0.521814,   0.602525]

    Beta spin:
      Trans. dipole moment [D]:             1.111644
        Cartesian components [D]:         [  0.553466,   0.111033,   0.957653]
      <r_h> [Ang]:                        [  2.344524,   1.566286,  -0.013513]
      <r_e> [Ang]:                        [  1.970311,   1.491709,  -0.658764]
      |<r_e - r_h>| [Ang]:                  0.749630
      Hole size [Ang]:                      0.863408
        Cartesian components [Ang]:       [  0.497916,   0.373697,   0.598250]
      Electron size [Ang]:                  1.855196
        Cartesian components [Ang]:       [  1.191166,   0.973415,   1.036985]
      RMS electron-hole separation [Ang]:   2.168844
        Cartesian components [Ang]:       [  1.335075,   1.044403,   1.353028]
      Covariance(r_h, r_e) [Ang^2]:         0.022642
      Correlation coefficient:              0.014135
      Center-of-mass size [Ang]:            1.028653
        Cartesian components [Ang]:       [  0.650232,   0.521814,   0.602525]

  Excited State 5 :
  -------------------------

    CT numbers (Mulliken)
      omega =     1.0003 (alpha:     0.5001, beta:     0.5001)
      <Phe> =    -0.0076 (alpha:    -0.0076, beta:    -0.0076)

    Exciton analysis of the transition density matrix
    Total:
      Trans. dipole moment [D]:             0.003619
        Cartesian components [D]:         [ -0.000437,  -0.003492,   0.000845]
      <r_h> [Ang]:                        [  2.311763,   1.559450,  -0.071468]
      <r_e> [Ang]:                        [  1.937748,   1.481314,  -0.733112]
      |<r_e - r_h>| [Ang]:                  0.764045
      Hole size [Ang]:                      0.828003
        Cartesian components [Ang]:       [  0.389992,   0.617019,   0.390874]
      Electron size [Ang]:                  2.187977
        Cartesian components [Ang]:       [  1.578225,   0.994200,   1.143685]
      RMS electron-hole separation [Ang]:   2.460396
        Cartesian components [Ang]:       [  1.667899,   1.172137,   1.377590]
      Covariance(r_h, r_e) [Ang^2]:         0.001524
      Correlation coefficient:              0.000841
      Center-of-mass size [Ang]:            1.170030
        Cartesian components [Ang]:       [  0.812984,   0.585340,   0.604486]

    Alpha spin:
      Trans. dipole moment [D]:             0.001809
        Cartesian components [D]:         [ -0.000219,  -0.001746,   0.000422]
      <r_h> [Ang]:                        [  2.311763,   1.559450,  -0.071468]
      <r_e> [Ang]:                        [  1.937748,   1.481314,  -0.733112]
      |<r_e - r_h>| [Ang]:                  0.764045
      Hole size [Ang]:                      0.828003
        Cartesian components [Ang]:       [  0.389992,   0.617019,   0.390874]
      Electron size [Ang]:                  2.187977
        Cartesian components [Ang]:       [  1.578225,   0.994200,   1.143685]
      RMS electron-hole separation [Ang]:   2.460396
        Cartesian components [Ang]:       [  1.667899,   1.172137,   1.377590]
      Covariance(r_h, r_e) [Ang^2]:         0.001524
      Correlation coefficient:              0.000841
      Center-of-mass size [Ang]:            1.170030
        Cartesian components [Ang]:       [  0.812984,   0.585340,   0.604486]

    Beta spin:
      Trans. dipole moment [D]:             0.001809
        Cartesian components [D]:         [ -0.000219,  -0.001746,   0.000422]
      <r_h> [Ang]:                        [  2.311763,   1.559450,  -0.071468]
      <r_e> [Ang]:                        [  1.937748,   1.481314,  -0.733112]
      |<r_e - r_h>| [Ang]:                  0.764045
      Hole size [Ang]:                      0.828003
        Cartesian components [Ang]:       [  0.389992,   0.617019,   0.390874]
      Electron size [Ang]:                  2.187977
        Cartesian components [Ang]:       [  1.578225,   0.994200,   1.143685]
      RMS electron-hole separation [Ang]:   2.460396
        Cartesian components [Ang]:       [  1.667899,   1.172137,   1.377590]
      Covariance(r_h, r_e) [Ang^2]:         0.001524
      Correlation coefficient:              0.000841
      Center-of-mass size [Ang]:            1.170030
        Cartesian components [Ang]:       [  0.812984,   0.585340,   0.604486]

  Excited State 6 :
  -------------------------

    CT numbers (Mulliken)
      omega =     1.0019 (alpha:     0.5010, beta:     0.5010)
      <Phe> =    -0.0169 (alpha:    -0.0169, beta:    -0.0169)

    Exciton analysis of the transition density matrix
    Total:
      Trans. dipole moment [D]:             1.686853
        Cartesian components [D]:         [ -0.835815,  -0.169604,  -1.455376]
      <r_h> [Ang]:                        [  2.359689,   1.569308,   0.012609]
      <r_e> [Ang]:                        [  1.988725,   1.494574,  -0.630774]
      |<r_e - r_h>| [Ang]:                  0.746418
      Hole size [Ang]:                      0.855722
        Cartesian components [Ang]:       [  0.491784,   0.375972,   0.590808]
      Electron size [Ang]:                  1.969433
        Cartesian components [Ang]:       [  1.248229,   1.043376,   1.109936]
      RMS electron-hole separation [Ang]:   2.272653
        Cartesian components [Ang]:       [  1.395836,   1.105771,   1.412042]
      Covariance(r_h, r_e) [Ang^2]:         0.001558
      Correlation coefficient:              0.000925
      Center-of-mass size [Ang]:            1.074016
        Cartesian components [Ang]:       [  0.668788,   0.557412,   0.628908]

    Alpha spin:
      Trans. dipole moment [D]:             0.843427
        Cartesian components [D]:         [ -0.417908,  -0.084802,  -0.727688]
      <r_h> [Ang]:                        [  2.359689,   1.569308,   0.012609]
      <r_e> [Ang]:                        [  1.988725,   1.494574,  -0.630774]
      |<r_e - r_h>| [Ang]:                  0.746418
      Hole size [Ang]:                      0.855722
        Cartesian components [Ang]:       [  0.491784,   0.375972,   0.590808]
      Electron size [Ang]:                  1.969433
        Cartesian components [Ang]:       [  1.248229,   1.043376,   1.109936]
      RMS electron-hole separation [Ang]:   2.272653
        Cartesian components [Ang]:       [  1.395836,   1.105771,   1.412042]
      Covariance(r_h, r_e) [Ang^2]:         0.001558
      Correlation coefficient:              0.000925
      Center-of-mass size [Ang]:            1.074016
        Cartesian components [Ang]:       [  0.668788,   0.557412,   0.628908]

    Beta spin:
      Trans. dipole moment [D]:             0.843427
        Cartesian components [D]:         [ -0.417908,  -0.084802,  -0.727688]
      <r_h> [Ang]:                        [  2.359689,   1.569308,   0.012609]
      <r_e> [Ang]:                        [  1.988725,   1.494574,  -0.630774]
      |<r_e - r_h>| [Ang]:                  0.746418
      Hole size [Ang]:                      0.855722
        Cartesian components [Ang]:       [  0.491784,   0.375972,   0.590808]
      Electron size [Ang]:                  1.969433
        Cartesian components [Ang]:       [  1.248229,   1.043376,   1.109936]
      RMS electron-hole separation [Ang]:   2.272653
        Cartesian components [Ang]:       [  1.395836,   1.105771,   1.412042]
      Covariance(r_h, r_e) [Ang^2]:         0.001558
      Correlation coefficient:              0.000925
      Center-of-mass size [Ang]:            1.074016
        Cartesian components [Ang]:       [  0.668788,   0.557412,   0.628908]

  Excited State 7 :
  -------------------------

    CT numbers (Mulliken)
      omega =     1.0027 (alpha:     0.5014, beta:     0.5014)
      <Phe> =     0.0432 (alpha:     0.0432, beta:     0.0432)

    Exciton analysis of the transition density matrix
    Total:
      Trans. dipole moment [D]:             0.000000
        Cartesian components [D]:         [ -0.000000,   0.000000,   0.000000]
      <r_h> [Ang]:                        [  2.349125,   1.567172,  -0.005700]
      <r_e> [Ang]:                        [  1.951527,   1.483352,  -0.712621]
      |<r_e - r_h>| [Ang]:                  0.815381
      Hole size [Ang]:                      0.861474
        Cartesian components [Ang]:       [  0.498740,   0.374148,   0.594482]
      Electron size [Ang]:                  2.078147
        Cartesian components [Ang]:       [  1.498453,   0.937763,   1.092674]
      RMS electron-hole separation [Ang]:   2.377245
        Cartesian components [Ang]:       [  1.613486,   1.011235,   1.423152]
      Covariance(r_h, r_e) [Ang^2]:         0.037191
      Correlation coefficient:              0.020774
      Center-of-mass size [Ang]:            1.133051
        Cartesian components [Ang]:       [  0.797332,   0.505767,   0.626311]

    Alpha spin:
      Trans. dipole moment [D]:             1.095767
        Cartesian components [D]:         [ -0.935082,   0.267658,   0.504665]
      <r_h> [Ang]:                        [  2.349125,   1.567172,  -0.005700]
      <r_e> [Ang]:                        [  1.951527,   1.483352,  -0.712621]
      |<r_e - r_h>| [Ang]:                  0.815381
      Hole size [Ang]:                      0.861474
        Cartesian components [Ang]:       [  0.498740,   0.374148,   0.594482]
      Electron size [Ang]:                  2.078147
        Cartesian components [Ang]:       [  1.498453,   0.937763,   1.092674]
      RMS electron-hole separation [Ang]:   2.377245
        Cartesian components [Ang]:       [  1.613486,   1.011235,   1.423152]
      Covariance(r_h, r_e) [Ang^2]:         0.037191
      Correlation coefficient:              0.020774
      Center-of-mass size [Ang]:            1.133051
        Cartesian components [Ang]:       [  0.797332,   0.505767,   0.626311]

    Beta spin:
      Trans. dipole moment [D]:             1.095767
        Cartesian components [D]:         [  0.935082,  -0.267658,  -0.504665]
      <r_h> [Ang]:                        [  2.349125,   1.567172,  -0.005700]
      <r_e> [Ang]:                        [  1.951527,   1.483352,  -0.712621]
      |<r_e - r_h>| [Ang]:                  0.815381
      Hole size [Ang]:                      0.861474
        Cartesian components [Ang]:       [  0.498740,   0.374148,   0.594482]
      Electron size [Ang]:                  2.078147
        Cartesian components [Ang]:       [  1.498453,   0.937763,   1.092674]
      RMS electron-hole separation [Ang]:   2.377245
        Cartesian components [Ang]:       [  1.613486,   1.011235,   1.423152]
      Covariance(r_h, r_e) [Ang^2]:         0.037191
      Correlation coefficient:              0.020774
      Center-of-mass size [Ang]:            1.133051
        Cartesian components [Ang]:       [  0.797332,   0.505767,   0.626311]

  Excited State 8 :
  -------------------------

    CT numbers (Mulliken)
      omega =     1.0013 (alpha:     0.5007, beta:     0.5007)
      <Phe> =    -0.0139 (alpha:    -0.0139, beta:    -0.0139)

    Exciton analysis of the transition density matrix
    Total:
      Trans. dipole moment [D]:             1.033849
        Cartesian components [D]:         [ -0.881992,   0.252603,   0.476577]
      <r_h> [Ang]:                        [  2.349847,   1.567307,  -0.004533]
      <r_e> [Ang]:                        [  1.937481,   1.481612,  -0.731929]
      |<r_e - r_h>| [Ang]:                  0.840532
      Hole size [Ang]:                      0.860786
        Cartesian components [Ang]:       [  0.495518,   0.374074,   0.596225]
      Electron size [Ang]:                  2.260838
        Cartesian components [Ang]:       [  1.628568,   1.033049,   1.179815]
      RMS electron-hole separation [Ang]:   2.562172
        Cartesian components [Ang]:       [  1.753416,   1.101999,   1.508594]
      Covariance(r_h, r_e) [Ang^2]:        -0.002946
      Correlation coefficient:             -0.001514
      Center-of-mass size [Ang]:            1.208972
        Cartesian components [Ang]:       [  0.850165,   0.549360,   0.661087]

    Alpha spin:
      Trans. dipole moment [D]:             0.516924
        Cartesian components [D]:         [ -0.440996,   0.126301,   0.238288]
      <r_h> [Ang]:                        [  2.349847,   1.567307,  -0.004533]
      <r_e> [Ang]:                        [  1.937481,   1.481612,  -0.731929]
      |<r_e - r_h>| [Ang]:                  0.840532
      Hole size [Ang]:                      0.860786
        Cartesian components [Ang]:       [  0.495518,   0.374074,   0.596225]
      Electron size [Ang]:                  2.260838
        Cartesian components [Ang]:       [  1.628568,   1.033049,   1.179815]
      RMS electron-hole separation [Ang]:   2.562172
        Cartesian components [Ang]:       [  1.753416,   1.101999,   1.508594]
      Covariance(r_h, r_e) [Ang^2]:        -0.002946
      Correlation coefficient:             -0.001514
      Center-of-mass size [Ang]:            1.208972
        Cartesian components [Ang]:       [  0.850165,   0.549360,   0.661087]

    Beta spin:
      Trans. dipole moment [D]:             0.516924
        Cartesian components [D]:         [ -0.440996,   0.126301,   0.238288]
      <r_h> [Ang]:                        [  2.349847,   1.567307,  -0.004533]
      <r_e> [Ang]:                        [  1.937481,   1.481612,  -0.731929]
      |<r_e - r_h>| [Ang]:                  0.840532
      Hole size [Ang]:                      0.860786
        Cartesian components [Ang]:       [  0.495518,   0.374074,   0.596225]
      Electron size [Ang]:                  2.260838
        Cartesian components [Ang]:       [  1.628568,   1.033049,   1.179815]
      RMS electron-hole separation [Ang]:   2.562172
        Cartesian components [Ang]:       [  1.753416,   1.101999,   1.508594]
      Covariance(r_h, r_e) [Ang^2]:        -0.002946
      Correlation coefficient:             -0.001514
      Center-of-mass size [Ang]:            1.208972
        Cartesian components [Ang]:       [  0.850165,   0.549360,   0.661087]

  Excited State 9 :
  -------------------------

    CT numbers (Mulliken)
      omega =     1.0021 (alpha:     0.5011, beta:     0.5011)
      <Phe> =     0.0329 (alpha:     0.0329, beta:     0.0329)

    Exciton analysis of the transition density matrix
    Total:
      Trans. dipole moment [D]:             0.000000
        Cartesian components [D]:         [  0.000000,  -0.000000,  -0.000000]
      <r_h> [Ang]:                        [  2.225579,   1.542154,  -0.220663]
      <r_e> [Ang]:                        [  1.972191,   1.493196,  -0.650269]
      |<r_e - r_h>| [Ang]:                  0.501162
      Hole size [Ang]:                      0.887910
        Cartesian components [Ang]:       [  0.636988,   0.378201,   0.489485]
      Electron size [Ang]:                  1.854636
        Cartesian components [Ang]:       [  1.201517,   0.964077,   1.032756]
      RMS electron-hole separation [Ang]:   2.106127
        Cartesian components [Ang]:       [  1.372820,   1.035633,   1.215978]
      Covariance(r_h, r_e) [Ang^2]:         0.021724
      Correlation coefficient:              0.013192
      Center-of-mass size [Ang]:            1.033381
        Cartesian components [Ang]:       [  0.685267,   0.518368,   0.574091]

    Alpha spin:
      Trans. dipole moment [D]:             1.227228
        Cartesian components [D]:         [ -1.049907,   0.299270,   0.560554]
      <r_h> [Ang]:                        [  2.225579,   1.542154,  -0.220663]
      <r_e> [Ang]:                        [  1.972191,   1.493196,  -0.650269]
      |<r_e - r_h>| [Ang]:                  0.501162
      Hole size [Ang]:                      0.887910
        Cartesian components [Ang]:       [  0.636988,   0.378201,   0.489485]
      Electron size [Ang]:                  1.854636
        Cartesian components [Ang]:       [  1.201517,   0.964077,   1.032756]
      RMS electron-hole separation [Ang]:   2.106127
        Cartesian components [Ang]:       [  1.372820,   1.035633,   1.215978]
      Covariance(r_h, r_e) [Ang^2]:         0.021724
      Correlation coefficient:              0.013192
      Center-of-mass size [Ang]:            1.033381
        Cartesian components [Ang]:       [  0.685267,   0.518368,   0.574091]

    Beta spin:
      Trans. dipole moment [D]:             1.227228
        Cartesian components [D]:         [  1.049907,  -0.299270,  -0.560554]
      <r_h> [Ang]:                        [  2.225579,   1.542154,  -0.220663]
      <r_e> [Ang]:                        [  1.972191,   1.493196,  -0.650269]
      |<r_e - r_h>| [Ang]:                  0.501162
      Hole size [Ang]:                      0.887910
        Cartesian components [Ang]:       [  0.636988,   0.378201,   0.489485]
      Electron size [Ang]:                  1.854636
        Cartesian components [Ang]:       [  1.201517,   0.964077,   1.032756]
      RMS electron-hole separation [Ang]:   2.106127
        Cartesian components [Ang]:       [  1.372820,   1.035633,   1.215978]
      Covariance(r_h, r_e) [Ang^2]:         0.021724
      Correlation coefficient:              0.013192
      Center-of-mass size [Ang]:            1.033381
        Cartesian components [Ang]:       [  0.685267,   0.518368,   0.574091]

  Excited State 10 :
  -------------------------

    CT numbers (Mulliken)
      omega =     1.0010 (alpha:     0.5005, beta:     0.5005)
      <Phe> =    -0.0200 (alpha:    -0.0200, beta:    -0.0200)

    Exciton analysis of the transition density matrix
    Total:
      Trans. dipole moment [D]:             1.932809
        Cartesian components [D]:         [  1.651732,  -0.471722,  -0.886008]
      <r_h> [Ang]:                        [  2.221118,   1.541125,  -0.229001]
      <r_e> [Ang]:                        [  1.947136,   1.486024,  -0.703720]
      |<r_e - r_h>| [Ang]:                  0.550873
      Hole size [Ang]:                      0.887642
        Cartesian components [Ang]:       [  0.639578,   0.378047,   0.485725]
      Electron size [Ang]:                  1.958900
        Cartesian components [Ang]:       [  1.240672,   1.053474,   1.090053]
      RMS electron-hole separation [Ang]:   2.211242
        Cartesian components [Ang]:       [  1.412197,   1.119826,   1.281124]
      Covariance(r_h, r_e) [Ang^2]:         0.019534
      Correlation coefficient:              0.011234
      Center-of-mass size [Ang]:            1.079846
        Cartesian components [Ang]:       [  0.703104,   0.560018,   0.598408]

    Alpha spin:
      Trans. dipole moment [D]:             0.966405
        Cartesian components [D]:         [  0.825866,  -0.235861,  -0.443004]
      <r_h> [Ang]:                        [  2.221118,   1.541125,  -0.229001]
      <r_e> [Ang]:                        [  1.947136,   1.486024,  -0.703720]
      |<r_e - r_h>| [Ang]:                  0.550873
      Hole size [Ang]:                      0.887642
        Cartesian components [Ang]:       [  0.639578,   0.378047,   0.485725]
      Electron size [Ang]:                  1.958900
        Cartesian components [Ang]:       [  1.240672,   1.053474,   1.090053]
      RMS electron-hole separation [Ang]:   2.211242
        Cartesian components [Ang]:       [  1.412197,   1.119826,   1.281124]
      Covariance(r_h, r_e) [Ang^2]:         0.019534
      Correlation coefficient:              0.011234
      Center-of-mass size [Ang]:            1.079846
        Cartesian components [Ang]:       [  0.703104,   0.560018,   0.598408]

    Beta spin:
      Trans. dipole moment [D]:             0.966405
        Cartesian components [D]:         [  0.825866,  -0.235861,  -0.443004]
      <r_h> [Ang]:                        [  2.221118,   1.541125,  -0.229001]
      <r_e> [Ang]:                        [  1.947136,   1.486024,  -0.703720]
      |<r_e - r_h>| [Ang]:                  0.550873
      Hole size [Ang]:                      0.887642
        Cartesian components [Ang]:       [  0.639578,   0.378047,   0.485725]
      Electron size [Ang]:                  1.958900
        Cartesian components [Ang]:       [  1.240672,   1.053474,   1.090053]
      RMS electron-hole separation [Ang]:   2.211242
        Cartesian components [Ang]:       [  1.412197,   1.119826,   1.281124]
      Covariance(r_h, r_e) [Ang^2]:         0.019534
      Correlation coefficient:              0.011234
      Center-of-mass size [Ang]:            1.079846
        Cartesian components [Ang]:       [  0.703104,   0.560018,   0.598408]

  ----------------------------------------------------------------------------
                              SA-NTO Decomposition
  ----------------------------------------------------------------------------


  Excited State 1 :
  -------------------------
    Decomposition into state-averaged NTOs
    Alpha spin:
      H- 0 -> L+ 0:  0.7067 ( 49.9%)
                     omega =  50.1%
    Beta spin:
      H- 0 -> L+ 0: -0.7067 ( 49.9%)
                     omega =  50.1%

  Excited State 2 :
  -------------------------
    Decomposition into state-averaged NTOs
    Alpha spin:
      H- 0 -> L+ 0:  0.7069 ( 50.0%)
                     omega =  50.1%
    Beta spin:
      H- 0 -> L+ 0:  0.7069 ( 50.0%)
                     omega =  50.1%

  Excited State 3 :
  -------------------------
    Decomposition into state-averaged NTOs
    Alpha spin:
      H- 0 -> L+ 1: -0.7066 ( 49.9%)
                     omega =  50.1%
    Beta spin:
      H- 0 -> L+ 1:  0.7066 ( 49.9%)
                     omega =  50.1%

  Excited State 4 :
  -------------------------
    Decomposition into state-averaged NTOs
    Alpha spin:
      H- 1 -> L+ 0: -0.7056 ( 49.8%)
                     omega =  50.1%
    Beta spin:
      H- 1 -> L+ 0:  0.7056 ( 49.8%)
                     omega =  50.1%

  Excited State 5 :
  -------------------------
    Decomposition into state-averaged NTOs
    Alpha spin:
      H- 0 -> L+ 1:  0.7070 ( 50.0%)
                     omega =  50.0%
    Beta spin:
      H- 0 -> L+ 1:  0.7070 ( 50.0%)
                     omega =  50.0%

  Excited State 6 :
  -------------------------
    Decomposition into state-averaged NTOs
    Alpha spin:
      H- 1 -> L+ 0: -0.7031 ( 49.4%)
                     omega =  50.1%
    Beta spin:
      H- 1 -> L+ 0: -0.7031 ( 49.4%)
                     omega =  50.1%

  Excited State 7 :
  -------------------------
    Decomposition into state-averaged NTOs
    Alpha spin:
      H- 1 -> L+ 1: -0.6983 ( 48.8%)
                     omega =  50.1%
    Beta spin:
      H- 1 -> L+ 1:  0.6983 ( 48.8%)
                     omega =  50.1%

  Excited State 8 :
  -------------------------
    Decomposition into state-averaged NTOs
    Alpha spin:
      H- 1 -> L+ 1: -0.7036 ( 49.5%)
                     omega =  50.1%
    Beta spin:
      H- 1 -> L+ 1: -0.7036 ( 49.5%)
                     omega =  50.1%

  Excited State 9 :
  -------------------------
    Decomposition into state-averaged NTOs
    Alpha spin:
      H- 2 -> L+ 0: -0.6970 ( 48.6%)
      H- 1 -> L+ 1:  0.1024 (  1.0%)
                     omega =  50.1%
    Beta spin:
      H- 2 -> L+ 0:  0.6970 ( 48.6%)
      H- 1 -> L+ 1: -0.1024 (  1.0%)
                     omega =  50.1%

  Excited State 10 :
  -------------------------
    Decomposition into state-averaged NTOs
    Alpha spin:
      H- 2 -> L+ 0:  0.7032 ( 49.4%)
                     omega =  50.1%
    Beta spin:
      H- 2 -> L+ 0:  0.7032 ( 49.4%)
                     omega =  50.1%

================================================================================

 --------------------------------------------------------------

                    Orbital Energies (a.u.)
 --------------------------------------------------------------

 Alpha MOs
 -- Occupied --
-19.2346  -1.1182  -0.6261  -0.4888  -0.4147
 -- Virtual --
  0.0878   0.1389   0.3614   0.3715   0.4265   0.4394   0.5388   0.7688
  0.8532   0.8877   0.9614   1.1406   1.2650   1.3179   1.5082   1.5393
  1.8541   1.9189   1.9527   2.1473   2.1840   2.3774   2.9776   3.4429
  3.4709   3.6084   3.6592   3.7714   3.8838   3.8938   4.1099   4.1211
  4.3091   4.4486   4.5396   4.5676   4.6960   4.8874   4.9189   4.9296
  5.0041   5.7331   5.9998   6.0272   6.2568   6.2792   6.3051   6.3379
  6.4981   6.8786   6.8988   7.4257  14.8185

 Beta MOs
 -- Occupied --
-19.2346  -1.1182  -0.6261  -0.4888  -0.4147
 -- Virtual --
  0.0878   0.1389   0.3614   0.3715   0.4265   0.4394   0.5388   0.7688
  0.8532   0.8877   0.9614   1.1406   1.2650   1.3179   1.5082   1.5393
  1.8541   1.9189   1.9527   2.1473   2.1840   2.3774   2.9776   3.4429
  3.4709   3.6084   3.6592   3.7714   3.8838   3.8938   4.1099   4.1211
  4.3091   4.4486   4.5396   4.5676   4.6960   4.8874   4.9189   4.9296
  5.0041   5.7331   5.9998   6.0272   6.2568   6.2792   6.3051   6.3379
  6.4981   6.8786   6.8988   7.4257  14.8185
 --------------------------------------------------------------

 -----------------------------------------------------------------
                    Cartesian Multipole Moments
 -----------------------------------------------------------------
    Charge (ESU x 10^10)
                 0.0000
    Dipole Moment (Debye)
         X      -0.9958      Y      -0.2035      Z      -1.7403
       Tot       2.0154
    Quadrupole Moments (Debye-Ang)
        XX      -9.3797     XY      -2.6489     YY      -8.0621
        XZ      -4.5863     YZ      -2.1771     ZZ      -5.4667
    Octopole Moments (Debye-Ang^2)
       XXX     -50.1854    XXY     -18.4076    XYY     -22.8377
       YYY     -36.1622    XXZ     -11.7600    XYZ      -5.6674
       YYZ      -1.8604    XZZ     -11.8407    YZZ      -8.9149
       ZZZ       0.8499
    Hexadecapole Moments (Debye-Ang^3)
      XXXX    -218.5681   XXXY     -89.6390   XXYY     -75.9539
      XYYY     -91.0194   YYYY    -117.9763   XXXZ     -29.2807
      XXYZ     -14.3406   XYYZ      -4.9420   YYYZ       0.4799
      XXZZ     -27.8756   XYZZ     -19.5387   YYZZ     -16.9385
      XZZZ       1.2964   YZZZ       1.6483   ZZZZ      -6.7076
 -----------------------------------------------------------------
 Total job time:  11.03s(wall), 9.68s(cpu)
 Sun May 18 17:49:36 2025

        *************************************************************
        *                                                           *
        *  Thank you very much for using Q-Chem.  Have a nice day.  *
        *                                                           *
        *************************************************************
