
Running Job 1 of 2 mom-smd-xas.in
qchem mom-smd-xas.in_3074957.0 /vast/palmer/scratch/batista/am3939/qchem-scratch/qchem3074957/ 0
/vast/palmer/apps/avx2/software/Q-Chem/5.4-openmp/exe/qcprog.exe_s mom-smd-xas.in_3074957.0 /vast/palmer/scratch/batista/am3939/qchem-scratch/qchem3074957/
                  Welcome to Q-Chem
     A Quantum Leap Into The Future Of Chemistry


 Q-Chem 5.4, Q-Chem, Inc., Pleasanton, CA (2021)

 License issued to: SRG Sharon Hammes-Schiffer, Yale University

 E. Epifanovsky,  A. T. B. Gilbert,  Xintian Feng,  Joonho Lee,  Yuezhi Mao,
 N. Mardirossian,  P. Pokhilko,  A. White,  M. Wormit,  M. P. Coons,
 A. L. Dempwolff,  Zhengting Gan,  D. Hait,  P. R. Horn,  L. D. Jacobson,
 I. Kaliman,  J. Kussmann,  A. W. Lange,  Ka Un Lao,  D. S. Levine,  Jie Liu,
 S. C. McKenzie,  A. F. Morrison,  K. Nanda,  F. Plasser,  D. R. Rehn,
 M. L. Vidal,  Zhi-Qiang You,  Ying Zhu,  B. Alam,  B. Albrecht,
 A. Aldossary,  E. Alguire,  J. H. Andersen,  D. Barton,  K. Begam,  A. Behn,
 Y. A. Bernard,  E. J. Berquist,  H. Burton,  A. Carreras,  K. Carter-Fenk,
 R. Chakraborty,  A. D. Chien,  K. D. Closser,  V. Cofer-Shabica,
 S. Dasgupta,  Jia Deng,  M. de Wergifosse,  M. Diedenhofen,  Hainam Do,
 S. Ehlert,  Po-Tung Fang,  S. Fatehi,  Qingguo Feng,  T. Friedhoff,
 J. Gayvert,  Qinghui Ge,  G. Gidofalvi,  M. Goldey,  J. Gomes,
 C. Gonzalez-Espinoza,  S. Gulania,  A. Gunina,  M. W. D. Hanson-Heine,
 P. H. P. Harbach,  A. W. Hauser,  M. F. Herbst,  M. Hernandez Vera,
 M. Hodecker,  Z. C. Holden,  S. Houck,  Xunkun Huang,  Kerwin Hui,
 B. C. Huynh,  M. Ivanov,  Hyunjun Ji,  Hanjie Jiang,  B. Kaduk,  S. Kaehler,
 K. Khistyaev,  Jaehoon Kim,  P. Klunzinger,  Z. Koczor-Benda,
 Joong Hoon Koh,  D. Kosenkov,  L. Koulias,  T. Kowalczyk,  C. M. Krauter,
 K. Kue,  A. Kunitsa,  T. Kus,  A. Landau,  K. V. Lawler,  D. Lefrancois,
 S. Lehtola,  Rain Li,  Yi-Pei Li,  Jiashu Liang,  M. Liebenthal,
 Hung-Hsuan Lin,  You-Sheng Lin,  Fenglai Liu,  Kuan-Yu Liu,
 M. Loipersberger,  A. Luenser,  A. Manjanath,  P. Manohar,  E. Mansoor,
 S. F. Manzer,  Shan-Ping Mao,  A. V. Marenich,  T. Markovich,  S. Mason,
 S. A. Maurer,  P. F. McLaughlin,  M. F. S. J. Menger,  J.-M. Mewes,
 S. A. Mewes,  P. Morgante,  J. W. Mullinax,  K. J. Oosterbaan,  G. Paran,
 Alexander C. Paul,  Suranjan K. Paul,  F. Pavosevic,  Zheng Pei,  S. Prager,
 E. I. Proynov,  E. Ramos,  B. Rana,  A. E. Rask,  A. Rettig,  R. M. Richard,
 F. Rob,  E. Rossomme,  T. Scheele,  M. Scheurer,  M. Schneider,
 N. Sergueev,  S. M. Sharada,  W. Skomorowski,  D. W. Small,  C. J. Stein,
 Yu-Chuan Su,  E. J. Sundstrom,  Zhen Tao,  J. Thirman,  T. Tsuchimochi,
 N. M. Tubman,  S. P. Veccham,  O. Vydrov,  J. Wenzel,  J. Witte,  A. Yamada,
 Kun Yao,  S. Yeganeh,  S. R. Yost,  A. Zech,  Igor Ying Zhang,  Xing Zhang,
 Yu Zhang,  D. Zuev,  A. Aspuru-Guzik,  A. T. Bell,  N. A. Besley,
 K. B. Bravaya,  B. R. Brooks,  D. Casanova,  Jeng-Da Chai,  S. Coriani,
 C. J. Cramer,  A. E. DePrince, III,  R. A. DiStasio Jr.,  A. Dreuw,
 B. D. Dunietz,  T. R. Furlani,  W. A. Goddard III,  S. Grimme,
 S. Hammes-Schiffer,  T. Head-Gordon,  W. J. Hehre,  Chao-Ping Hsu,
 T.-C. Jagau,  Yousung Jung,  A. Klamt,  Jing Kong,  D. S. Lambrecht,
 WanZhen Liang,  N. J. Mayhall,  C. W. McCurdy,  J. B. Neaton,
 C. Ochsenfeld,  J. A. Parkhill,  R. Peverati,  V. A. Rassolov,  Yihan Shao,
 L. V. Slipchenko,  T. Stauch,  R. P. Steele,  J. E. Subotnik,
 A. J. W. Thom,  A. Tkatchenko,  D. G. Truhlar,  T. Van Voorhis,
 T. A. Wesolowski,  K. B. Whaley,  H. L. Woodcock III,  P. M. Zimmerman,
 S. Faraji,  P. M. W. Gill,  M. Head-Gordon,  J. M. Herbert,  A. I. Krylov

 Additional authors for Version 5.4.1:
 S. Kotaru,  Shaozhi Li,  Xiangyuan Li,  F. Matz,  A. Molle,  Haisheng Ren,
 Yingli Su,  Hung-Yi Tsai,  C. Utku,  Fang Wang

 Contributors to earlier versions of Q-Chem not listed above:
 R. D. Adamson,  B. Austin,  R. Baer,  J. Baker,  G. J. O. Beran,
 K. Brandhorst,  S. T. Brown,  E. F. C. Byrd,  A. K. Chakraborty,
 G. K. L. Chan,  Chun-Min Chang,  Yunqing Chen,  C.-L. Cheng,
 Siu Hung Chien,  D. M. Chipman,  D. L. Crittenden,  H. Dachsel,
 R. J. Doerksen,  A. D. Dutoi,  R. G. Edgar,  J. Fosso-Tande,
 L. Fusti-Molnar,  D. Ghosh,  A. Ghysels,  A. Golubeva-Zadorozhnaya,
 J. Gonthier,  M. S. Gordon,  S. R. Gwaltney,  G. Hawkins,  J. E. Herr,
 A. Heyden,  S. Hirata,  E. G. Hohenstein,  G. Kedziora,  F. J. Keil,
 C. Kelley,  Jihan Kim,  R. A. King,  R. Z. Khaliullin,  P. P. Korambath,
 W. Kurlancheek,  A. Laurent,  A. M. Lee,  M. S. Lee,  S. V. Levchenko,
 Ching Yeh Lin,  D. Liotard,  E. Livshits,  R. C. Lochan,  I. Lotan,
 L. A. Martinez-Martinez,  P. E. Maslen,  N. Nair,  D. P. O'Neill,
 D. Neuhauser,  E. Neuscamman,  C. M. Oana,  R. Olivares-Amaya,  R. Olson,
 T. M. Perrine,  B. Peters,  P. A. Pieniazek,  A. Prociuk,  Y. M. Rhee,
 J. Ritchie,  M. A. Rohrdanz,  E. Rosta,  N. J. Russ,  H. F. Schaefer III,
 M. W. Schmidt,  N. E. Schultz,  S. Sharma,  N. Shenvi,  C. D. Sherrill,
 A. C. Simmonett,  A. Sodt,  T. Stein,  D. Stuck,  K. S. Thanthiriwatte,
 V. Vanovschi,  L. Vogt,  Tao Wang,  A. Warshel,  M. A. Watson,
 C. F. Williams,  Q. Wu,  X. Xu,  Jun Yang,  W. Zhang,  Yan Zhao

 Please cite Q-Chem as follows:
 Y. Shao et al., Mol. Phys. 113, 184-215 (2015)
 DOI: 10.1080/00268976.2014.952696

 Q-Chem 5.4.1 for Intel X86 EM64T Linux

 Parts of Q-Chem use Armadillo 9.800.1 (Horizon Scraper).
 http://arma.sourceforge.net/

 Q-Chem begins on Sun May 18 17:54:44 2025

 Host:
0

     Scratch files written to /vast/palmer/scratch/batista/am3939/qchem-scratch/qchem3074957//
 Aug1521 |scratch|qcdevops|jenkins|workspace|build_RNUM 7655
 Processing $rem in /vast/palmer/apps/avx2/software/Q-Chem/5.4-openmp/config/preferences:
 Processing $rem in /home/am3939/.qchemrc:
 Symmetry turned off for PCM/SM12/SMD calculation

 Checking the input file for inconsistencies... 	...done.

--------------------------------------------------------------
User input:
--------------------------------------------------------------
$molecule
0 1
H        1.36499000      1.69385000     -0.19748000
O        2.32877000      1.56294000     -0.04168000
H        2.70244000      1.31157000     -0.91665000
$end

$rem
JOBTYPE           sp
METHOD            src1-r1
BASIS             gen
UNRESTRICTED      True
SYMMETRY          False
SYM_IGNORE        True
SOLVENT_METHOD    smd
$end

$basis
H 0
pc-2
****
O 0
S   1   1.00
0.168149D+05           1.0000000
S   1   1.00
0.252216D+04           1.0000000
S   1   1.00
0.574121D+03           1.0000000
S   1   1.00
0.162513D+03           1.0000000
S   1   1.00
0.526845D+02           1.0000000
S   1   1.00
0.186061D+02           1.0000000
S   1   1.00
0.682448D+01           1.0000000
S   1   1.00
0.193105D+01           1.0000000
S   1   1.00
0.743149D+00           1.0000000
S   1   1.00
0.247793D+00           1.0000000
P   1   1.00
0.684929D+02           1.0000000
P   1   1.00
0.158224D+02           1.0000000
P   1   1.00
0.473591D+01           1.0000000
P   1   1.00
0.161501D+01           1.0000000
P   1   1.00
0.540907D+00           1.0000000
P   1   1.00
0.163898D+00           1.0000000
D   1   1.00
0.248193D+01           1.0000000
D   1   1.00
0.721110D+00           1.0000000
F   1   1.00
0.114891D+01           1.0000000
****
$end

$smx
solvent    water
$end

--------------------------------------------------------------
 ----------------------------------------------------------------
             Standard Nuclear Orientation (Angstroms)
    I     Atom           X                Y                Z
 ----------------------------------------------------------------
    1      H       1.3649900000     1.6938500000    -0.1974800000
    2      O       2.3287700000     1.5629400000    -0.0416800000
    3      H       2.7024400000     1.3115700000    -0.9166500000
 ----------------------------------------------------------------
 Nuclear Repulsion Energy =           8.93764972 hartrees
 There are        5 alpha and        5 beta electrons
 Requested basis set is non-standard
 There are 31 shells and 73 basis functions

 Total QAlloc Memory Limit   8000 MB
 Mega-Array Size       188 MB
 MEM_STATIC part       192 MB

 Citation of the SMD model:
 Marenich, A.V.; Cramer, C.J.; Truhlar, D.G.
 J. Phys. Chem. B 2009, 113, 6378-6396.
 iSolventCode=           1
 Solvent: water

 vradii
            1           2           3
    1   1.2000000   1.5200000   1.2000000
 Changing PCM_VDW_RADII to SMD_RADIUS
 Discretize the solute cavity surface with Lebedev spheres
	Using 110 Lebedev grid points for each H atom
	Using 194 Lebedev grid points for other atoms
	Atomic van der Waals radii will be scaled by 1.20
 Remove points where switching function is < 1.0e-08
 Keep 290 surface tesserae and discard 124 interior tesserae
 Molecular Surface Area = 36.661 Angst**2

                       Distance Matrix (Angstroms)
             H (  1)   O (  2)
   O (  2)  0.985029
   H (  3)  1.565923  0.984067

 A cutoff of  1.0D-08 yielded    496 shell pairs
 There are      2792 function pairs (      3375 Cartesian)
 Smallest overlap matrix eigenvalue = 4.55E-03

 Scale SEOQF with 1.000000e-01/1.000000e-01/1.000000e+00

 Standard Electronic Orientation quadrupole field applied
 Nucleus-field energy     =     0.0000000026 hartrees
 ================ Generating on-the-fly SAD Guess ================
Attempting to make child job directory: /vast/palmer/scratch/batista/am3939/qchem-scratch/qchem3074957//Frg1/
Attempting to make child job directory: /vast/palmer/scratch/batista/am3939/qchem-scratch/qchem3074957//Frg2/
Creating input file /vast/palmer/scratch/batista/am3939/qchem-scratch/qchem3074957/Frg1.input
using default PutDataFrgm: nothing
calling putenv with: QCSCRATCH=/vast/palmer/scratch/batista/am3939/qchem-scratch/qchem3074957/
Spawning Job For Fragment 0
Done Job For Fragment 0
calling putenv with: QCSCRATCH=/vast/palmer/scratch/batista/am3939/qchem-scratch
calling putenv with: QCTHREADS=1
Creating input file /vast/palmer/scratch/batista/am3939/qchem-scratch/qchem3074957/Frg2.input
using default PutDataFrgm: nothing
calling putenv with: QCSCRATCH=/vast/palmer/scratch/batista/am3939/qchem-scratch/qchem3074957/
Spawning Job For Fragment 1
Done Job For Fragment 1
calling putenv with: QCSCRATCH=/vast/palmer/scratch/batista/am3939/qchem-scratch
calling putenv with: QCTHREADS=1
 Time for running child jobs:  CPU 0.00 s  wall 2.61 s
 ============= Method Specific SAD Guess Constructed =============
 Guess from on-the-fly superposition of atomic densities
 Warning: Energy on first SCF cycle will be non-variational

 -----------------------------------------------------------------------
  General SCF calculation program by
  Eric Jon Sundstrom, Paul Horn, Yuezhi Mao, Dmitri Zuev, Alec White,
  David Stuck, Shaama M.S., Shane Yost, Joonho Lee, David Small,
  Daniel Levine, Susi Lehtola, Hugh Burton, Evgeny Epifanovsky,
  Bang C. Huynh
 -----------------------------------------------------------------------
 Exchange:     0.5000 Hartree-Fock + 0.8300 B88 + -0.5000 muB88 + 0.1700 muB88src + LR-HF
               (Short-Range Corrected Functional)
 Correlation:  0.1900 VWN5 + 0.8100 LYP
 Using SG-1 standard quadrature grid

 Citation of the SMD model:
 Marenich, A.V.; Cramer, C.J.; Truhlar, D.G.
 J. Phys. Chem. B 2009, 113, 6378-6396.
 iSolventCode=           1
 Solvent: water

 vradii
            1           2           3
    1   1.2000000   1.5200000   1.2000000

 A unrestricted SCF calculation will be
 performed using DIIS
 SCF converges when DIIS error is below 1.0e-05
 ---------------------------------------
  Cycle       Energy         DIIS error
 ---------------------------------------

    1     -76.7642845065      3.14e-02

    2     -76.4831936111      4.92e-03

    3     -76.4690132731      6.06e-03

    4     -76.5360966850      3.97e-04

    5     -76.5367572382      1.11e-04

    6     -76.5368172592      3.04e-05
    7     -76.5368218146      7.24e-06  Convergence criterion met
 ---------------------------------------
 SCF time:   CPU 2.67s  wall 4.00s
<S^2> =          0.000000169
(3)  G-ENP(liq) elect-nuc-pol free energy of system      -76.536821815 a.u.
(4)  G-CDS(liq) cavity-dispersion-solvent structure
     free energy                                                1.4731 kcal/mol
(6)  G-S(liq) free energy of system                      -76.534474350 a.u.
 SCF   energy in the final basis set =      -76.5344743503
 Total energy in the final basis set =      -76.5344743503

 --------------------------------------------------------------

                    Orbital Energies (a.u.)
 --------------------------------------------------------------

 Alpha MOs
 -- Occupied --
-19.7394  -1.0724  -0.5372  -0.4151  -0.3408
 -- Virtual --
  0.0227   0.0905   0.2845   0.3026   0.3697   0.3874   0.5084   0.7100
  0.7904   0.8956   0.9539   1.0862   1.1852   1.2366   1.4611   1.4815
  1.9287   1.9909   2.0391   2.2068   2.2516   2.4172   3.0851   3.4651
  3.4832   3.6255   3.6788   3.7770   3.8841   3.9425   4.0921   4.1044
  4.3115   4.4901   4.5191   4.5449   4.7162   4.9049   4.9070   4.9482
  5.0611   5.1438   6.0556   6.0880   6.1073   6.2992   6.9791   7.1422
  7.2079   7.2167   7.4583   7.7458   8.0783   9.3448   9.9995  10.3062
 24.5803  35.8127  36.1567  36.3182  96.9866 165.6368 165.8670 165.9761
349.57741295.94525529.0137*********

 Beta MOs
 -- Occupied --
-19.7393  -1.0723  -0.5372  -0.4151  -0.3408
 -- Virtual --
  0.0227   0.0905   0.2844   0.3026   0.3698   0.3874   0.5085   0.7100
  0.7903   0.8956   0.9539   1.0861   1.1852   1.2365   1.4610   1.4815
  1.9288   1.9909   2.0391   2.2069   2.2517   2.4172   3.0851   3.4651
  3.4832   3.6255   3.6788   3.7769   3.8841   3.9425   4.0920   4.1043
  4.3115   4.4900   4.5190   4.5448   4.7162   4.9050   4.9070   4.9481
  5.0611   5.1438   6.0555   6.0880   6.1073   6.2992   6.9791   7.1422
  7.2080   7.2168   7.4583   7.7458   8.0784   9.3448   9.9996  10.3062
 24.5803  35.8128  36.1567  36.3183  96.9866 165.6368 165.8670 165.9761
349.57741295.94525529.0137*********
 --------------------------------------------------------------

          Ground-State Mulliken Net Atomic Charges

     Atom                 Charge (a.u.)    Spin (a.u.)
  --------------------------------------------------------
      1 H                     0.304419      -0.000267
      2 O                    -0.608183       0.000532
      3 H                     0.303763      -0.000265
  --------------------------------------------------------
  Sum of atomic charges =     0.000000
  Sum of spin   charges =    -0.000000

 -----------------------------------------------------------------
                    Cartesian Multipole Moments
 -----------------------------------------------------------------
    Charge (ESU x 10^10)
                -0.0000
    Dipole Moment (Debye)
         X      -1.2257      Y      -0.2503      Z      -2.1418
       Tot       2.4804
    Quadrupole Moments (Debye-Ang)
        XX     -10.1988     XY      -3.1595     YY      -8.1755
        XZ      -5.5220     YZ      -2.7562     ZZ      -5.2085
    Octopole Moments (Debye-Ang^2)
       XXX     -52.6077    XXY     -20.1309    XYY     -23.8632
       YYY     -36.3972    XXZ     -14.1530    XYZ      -6.9898
       YYZ      -2.8273    XZZ     -11.2548    YZZ      -8.5838
       ZZZ       0.2463
    Hexadecapole Moments (Debye-Ang^3)
      XXXX    -225.4016   XXXY     -94.6993   XXYY     -79.3612
      XYYY     -93.0982   YYYY    -118.3024   XXXZ     -35.7721
      XXYZ     -17.6867   XYYZ      -7.1122   YYYZ      -1.3079
      XXZZ     -26.3491   XYZZ     -18.8203   YYZZ     -16.4028
      XZZZ      -0.1702   YZZZ       0.7944   ZZZZ      -5.9754
 -----------------------------------------------------------------
 Total job time:  6.19s(wall), 2.72s(cpu)
 Sun May 18 17:54:51 2025

        *************************************************************
        *                                                           *
        *  Thank you very much for using Q-Chem.  Have a nice day.  *
        *                                                           *
        *************************************************************



Running Job 2 of 2 mom-smd-xas.in
qchem mom-smd-xas.in_3074957.1 /vast/palmer/scratch/batista/am3939/qchem-scratch/qchem3074957/ 0
/vast/palmer/apps/avx2/software/Q-Chem/5.4-openmp/exe/qcprog.exe_s mom-smd-xas.in_3074957.1 /vast/palmer/scratch/batista/am3939/qchem-scratch/qchem3074957/
                  Welcome to Q-Chem
     A Quantum Leap Into The Future Of Chemistry


 Q-Chem 5.4, Q-Chem, Inc., Pleasanton, CA (2021)

 License issued to: SRG Sharon Hammes-Schiffer, Yale University

 E. Epifanovsky,  A. T. B. Gilbert,  Xintian Feng,  Joonho Lee,  Yuezhi Mao,
 N. Mardirossian,  P. Pokhilko,  A. White,  M. Wormit,  M. P. Coons,
 A. L. Dempwolff,  Zhengting Gan,  D. Hait,  P. R. Horn,  L. D. Jacobson,
 I. Kaliman,  J. Kussmann,  A. W. Lange,  Ka Un Lao,  D. S. Levine,  Jie Liu,
 S. C. McKenzie,  A. F. Morrison,  K. Nanda,  F. Plasser,  D. R. Rehn,
 M. L. Vidal,  Zhi-Qiang You,  Ying Zhu,  B. Alam,  B. Albrecht,
 A. Aldossary,  E. Alguire,  J. H. Andersen,  D. Barton,  K. Begam,  A. Behn,
 Y. A. Bernard,  E. J. Berquist,  H. Burton,  A. Carreras,  K. Carter-Fenk,
 R. Chakraborty,  A. D. Chien,  K. D. Closser,  V. Cofer-Shabica,
 S. Dasgupta,  Jia Deng,  M. de Wergifosse,  M. Diedenhofen,  Hainam Do,
 S. Ehlert,  Po-Tung Fang,  S. Fatehi,  Qingguo Feng,  T. Friedhoff,
 J. Gayvert,  Qinghui Ge,  G. Gidofalvi,  M. Goldey,  J. Gomes,
 C. Gonzalez-Espinoza,  S. Gulania,  A. Gunina,  M. W. D. Hanson-Heine,
 P. H. P. Harbach,  A. W. Hauser,  M. F. Herbst,  M. Hernandez Vera,
 M. Hodecker,  Z. C. Holden,  S. Houck,  Xunkun Huang,  Kerwin Hui,
 B. C. Huynh,  M. Ivanov,  Hyunjun Ji,  Hanjie Jiang,  B. Kaduk,  S. Kaehler,
 K. Khistyaev,  Jaehoon Kim,  P. Klunzinger,  Z. Koczor-Benda,
 Joong Hoon Koh,  D. Kosenkov,  L. Koulias,  T. Kowalczyk,  C. M. Krauter,
 K. Kue,  A. Kunitsa,  T. Kus,  A. Landau,  K. V. Lawler,  D. Lefrancois,
 S. Lehtola,  Rain Li,  Yi-Pei Li,  Jiashu Liang,  M. Liebenthal,
 Hung-Hsuan Lin,  You-Sheng Lin,  Fenglai Liu,  Kuan-Yu Liu,
 M. Loipersberger,  A. Luenser,  A. Manjanath,  P. Manohar,  E. Mansoor,
 S. F. Manzer,  Shan-Ping Mao,  A. V. Marenich,  T. Markovich,  S. Mason,
 S. A. Maurer,  P. F. McLaughlin,  M. F. S. J. Menger,  J.-M. Mewes,
 S. A. Mewes,  P. Morgante,  J. W. Mullinax,  K. J. Oosterbaan,  G. Paran,
 Alexander C. Paul,  Suranjan K. Paul,  F. Pavosevic,  Zheng Pei,  S. Prager,
 E. I. Proynov,  E. Ramos,  B. Rana,  A. E. Rask,  A. Rettig,  R. M. Richard,
 F. Rob,  E. Rossomme,  T. Scheele,  M. Scheurer,  M. Schneider,
 N. Sergueev,  S. M. Sharada,  W. Skomorowski,  D. W. Small,  C. J. Stein,
 Yu-Chuan Su,  E. J. Sundstrom,  Zhen Tao,  J. Thirman,  T. Tsuchimochi,
 N. M. Tubman,  S. P. Veccham,  O. Vydrov,  J. Wenzel,  J. Witte,  A. Yamada,
 Kun Yao,  S. Yeganeh,  S. R. Yost,  A. Zech,  Igor Ying Zhang,  Xing Zhang,
 Yu Zhang,  D. Zuev,  A. Aspuru-Guzik,  A. T. Bell,  N. A. Besley,
 K. B. Bravaya,  B. R. Brooks,  D. Casanova,  Jeng-Da Chai,  S. Coriani,
 C. J. Cramer,  A. E. DePrince, III,  R. A. DiStasio Jr.,  A. Dreuw,
 B. D. Dunietz,  T. R. Furlani,  W. A. Goddard III,  S. Grimme,
 S. Hammes-Schiffer,  T. Head-Gordon,  W. J. Hehre,  Chao-Ping Hsu,
 T.-C. Jagau,  Yousung Jung,  A. Klamt,  Jing Kong,  D. S. Lambrecht,
 WanZhen Liang,  N. J. Mayhall,  C. W. McCurdy,  J. B. Neaton,
 C. Ochsenfeld,  J. A. Parkhill,  R. Peverati,  V. A. Rassolov,  Yihan Shao,
 L. V. Slipchenko,  T. Stauch,  R. P. Steele,  J. E. Subotnik,
 A. J. W. Thom,  A. Tkatchenko,  D. G. Truhlar,  T. Van Voorhis,
 T. A. Wesolowski,  K. B. Whaley,  H. L. Woodcock III,  P. M. Zimmerman,
 S. Faraji,  P. M. W. Gill,  M. Head-Gordon,  J. M. Herbert,  A. I. Krylov

 Additional authors for Version 5.4.1:
 S. Kotaru,  Shaozhi Li,  Xiangyuan Li,  F. Matz,  A. Molle,  Haisheng Ren,
 Yingli Su,  Hung-Yi Tsai,  C. Utku,  Fang Wang

 Contributors to earlier versions of Q-Chem not listed above:
 R. D. Adamson,  B. Austin,  R. Baer,  J. Baker,  G. J. O. Beran,
 K. Brandhorst,  S. T. Brown,  E. F. C. Byrd,  A. K. Chakraborty,
 G. K. L. Chan,  Chun-Min Chang,  Yunqing Chen,  C.-L. Cheng,
 Siu Hung Chien,  D. M. Chipman,  D. L. Crittenden,  H. Dachsel,
 R. J. Doerksen,  A. D. Dutoi,  R. G. Edgar,  J. Fosso-Tande,
 L. Fusti-Molnar,  D. Ghosh,  A. Ghysels,  A. Golubeva-Zadorozhnaya,
 J. Gonthier,  M. S. Gordon,  S. R. Gwaltney,  G. Hawkins,  J. E. Herr,
 A. Heyden,  S. Hirata,  E. G. Hohenstein,  G. Kedziora,  F. J. Keil,
 C. Kelley,  Jihan Kim,  R. A. King,  R. Z. Khaliullin,  P. P. Korambath,
 W. Kurlancheek,  A. Laurent,  A. M. Lee,  M. S. Lee,  S. V. Levchenko,
 Ching Yeh Lin,  D. Liotard,  E. Livshits,  R. C. Lochan,  I. Lotan,
 L. A. Martinez-Martinez,  P. E. Maslen,  N. Nair,  D. P. O'Neill,
 D. Neuhauser,  E. Neuscamman,  C. M. Oana,  R. Olivares-Amaya,  R. Olson,
 T. M. Perrine,  B. Peters,  P. A. Pieniazek,  A. Prociuk,  Y. M. Rhee,
 J. Ritchie,  M. A. Rohrdanz,  E. Rosta,  N. J. Russ,  H. F. Schaefer III,
 M. W. Schmidt,  N. E. Schultz,  S. Sharma,  N. Shenvi,  C. D. Sherrill,
 A. C. Simmonett,  A. Sodt,  T. Stein,  D. Stuck,  K. S. Thanthiriwatte,
 V. Vanovschi,  L. Vogt,  Tao Wang,  A. Warshel,  M. A. Watson,
 C. F. Williams,  Q. Wu,  X. Xu,  Jun Yang,  W. Zhang,  Yan Zhao

 Please cite Q-Chem as follows:
 Y. Shao et al., Mol. Phys. 113, 184-215 (2015)
 DOI: 10.1080/00268976.2014.952696

 Q-Chem 5.4.1 for Intel X86 EM64T Linux

 Parts of Q-Chem use Armadillo 9.800.1 (Horizon Scraper).
 http://arma.sourceforge.net/

 Q-Chem begins on Sun May 18 17:54:51 2025

 Host:
0

     Scratch files written to /vast/palmer/scratch/batista/am3939/qchem-scratch/qchem3074957//
 Aug1521 |scratch|qcdevops|jenkins|workspace|build_RNUM 7655
 Processing $rem in /vast/palmer/apps/avx2/software/Q-Chem/5.4-openmp/config/preferences:
 Processing $rem in /home/am3939/.qchemrc:
The previous job contains 0 fragments, simply inherited here
 Symmetry turned off for PCM/SM12/SMD calculation

 Checking the input file for inconsistencies... 	...done.

--------------------------------------------------------------
User input:
--------------------------------------------------------------


$molecule
read
$end

$rem
JOBTYPE           sp
METHOD            src1-r1
BASIS             gen
UNRESTRICTED      True
SYMMETRY          False
SYM_IGNORE        True
SCF_GUESS         read
MOM_START         1
MOM_METHOD        IMOM
CIS_N_ROOTS       10
CIS_SINGLETS      True
CIS_TRIPLETS      False
STATE_ANALYSIS    True
TRNSS             True
TRTYPE            3
N_SOL             1
SOLVENT_METHOD    smd
$end

$basis
H 0
pc-2
****
O 0
S   1   1.00
0.168149D+05           1.0000000
S   1   1.00
0.252216D+04           1.0000000
S   1   1.00
0.574121D+03           1.0000000
S   1   1.00
0.162513D+03           1.0000000
S   1   1.00
0.526845D+02           1.0000000
S   1   1.00
0.186061D+02           1.0000000
S   1   1.00
0.682448D+01           1.0000000
S   1   1.00
0.193105D+01           1.0000000
S   1   1.00
0.743149D+00           1.0000000
S   1   1.00
0.247793D+00           1.0000000
P   1   1.00
0.684929D+02           1.0000000
P   1   1.00
0.158224D+02           1.0000000
P   1   1.00
0.473591D+01           1.0000000
P   1   1.00
0.161501D+01           1.0000000
P   1   1.00
0.540907D+00           1.0000000
P   1   1.00
0.163898D+00           1.0000000
D   1   1.00
0.248193D+01           1.0000000
D   1   1.00
0.721110D+00           1.0000000
F   1   1.00
0.114891D+01           1.0000000
****
$end

$smx
solvent    water
$end

$occupied
1:5
1:5
$end

$solute
1
$end
--------------------------------------------------------------
 ----------------------------------------------------------------
             Standard Nuclear Orientation (Angstroms)
    I     Atom           X                Y                Z
 ----------------------------------------------------------------
    1      H       1.3649900000     1.6938500000    -0.1974800000
    2      O       2.3287700000     1.5629400000    -0.0416800000
    3      H       2.7024400000     1.3115700000    -0.9166500000
 ----------------------------------------------------------------
 Nuclear Repulsion Energy =           8.93764972 hartrees
 There are        5 alpha and        5 beta electrons
 Requested basis set is non-standard
 There are 31 shells and 73 basis functions

 Total QAlloc Memory Limit   8000 MB
 Mega-Array Size       188 MB
 MEM_STATIC part       192 MB

 Citation of the SMD model:
 Marenich, A.V.; Cramer, C.J.; Truhlar, D.G.
 J. Phys. Chem. B 2009, 113, 6378-6396.
 iSolventCode=           1
 Solvent: water

 vradii
            1           2           3
    1   1.2000000   1.5200000   1.2000000
 Changing PCM_VDW_RADII to SMD_RADIUS
 Discretize the solute cavity surface with Lebedev spheres
	Using 110 Lebedev grid points for each H atom
	Using 194 Lebedev grid points for other atoms
	Atomic van der Waals radii will be scaled by 1.20
 Remove points where switching function is < 1.0e-08
 Keep 290 surface tesserae and discard 124 interior tesserae
 Molecular Surface Area = 36.661 Angst**2

                       Distance Matrix (Angstroms)
             H (  1)   O (  2)
   O (  2)  0.985029
   H (  3)  1.565923  0.984067

 A cutoff of  1.0D-11 yielded    496 shell pairs
 There are      2792 function pairs (      3375 Cartesian)
 Smallest overlap matrix eigenvalue = 4.55E-03

 Scale SEOQF with 1.000000e-01/1.000000e-01/1.000000e+00

 Standard Electronic Orientation quadrupole field applied
 Nucleus-field energy     =     0.0000000026 hartrees
 Guess MOs from SCF MO coefficient file
 Reading MOs from coefficient file
 User-specified occupied guess orbitals will be used
   Alpha:
   1   2   3   4   5
 Reading MOs from coefficient file
   Beta:
   1   2   3   4   5

 -----------------------------------------------------------------------
  General SCF calculation program by
  Eric Jon Sundstrom, Paul Horn, Yuezhi Mao, Dmitri Zuev, Alec White,
  David Stuck, Shaama M.S., Shane Yost, Joonho Lee, David Small,
  Daniel Levine, Susi Lehtola, Hugh Burton, Evgeny Epifanovsky,
  Bang C. Huynh
 -----------------------------------------------------------------------
 Exchange:     0.5000 Hartree-Fock + 0.8300 B88 + -0.5000 muB88 + 0.1700 muB88src + LR-HF
               (Short-Range Corrected Functional)
 Correlation:  0.1900 VWN5 + 0.8100 LYP
 Using SG-1 standard quadrature grid

 Citation of the SMD model:
 Marenich, A.V.; Cramer, C.J.; Truhlar, D.G.
 J. Phys. Chem. B 2009, 113, 6378-6396.
 iSolventCode=           1
 Solvent: water

 vradii
            1           2           3
    1   1.2000000   1.5200000   1.2000000
 Writing Guess MOs for IMOM

 A unrestricted SCF calculation will be
 performed using Roothaan-Hall, DIIS
 SCF converges when DIIS error is below 1.0e-08
 ---------------------------------------
  Cycle       Energy         DIIS error
 ---------------------------------------
Maximum Overlap Method Active
IMOM method
 MOM overlap:    5.0 / 5
Maximum Overlap Method Active
IMOM method
 MOM overlap:    5.0 / 5

    1     -76.5192748967      7.73e-04  Roothaan Step
 ---------------------------------------
  Cycle       Energy         DIIS error
 ---------------------------------------
Maximum Overlap Method Active
IMOM method
 MOM overlap:    5.00 / 5
Maximum Overlap Method Active
IMOM method
 MOM overlap:    5.00 / 5

    1     -76.5328144078      1.03e-03
Maximum Overlap Method Active
IMOM method
 MOM overlap:    5.00 / 5
Maximum Overlap Method Active
IMOM method
 MOM overlap:    5.00 / 5

    2     -76.5346554632      1.11e-03
Maximum Overlap Method Active
IMOM method
 MOM overlap:    5.00 / 5
Maximum Overlap Method Active
IMOM method
 MOM overlap:    5.00 / 5

    3     -76.5367667998      1.55e-04
Maximum Overlap Method Active
IMOM method
 MOM overlap:    5.00 / 5
Maximum Overlap Method Active
IMOM method
 MOM overlap:    5.00 / 5

    4     -76.5368198878      3.46e-05
Maximum Overlap Method Active
IMOM method
 MOM overlap:    5.00 / 5
Maximum Overlap Method Active
IMOM method
 MOM overlap:    5.00 / 5

    5     -76.5368221812      4.41e-06
Maximum Overlap Method Active
IMOM method
 MOM overlap:    5.00 / 5
Maximum Overlap Method Active
IMOM method
 MOM overlap:    5.00 / 5

    6     -76.5368222456      3.78e-07
Maximum Overlap Method Active
IMOM method
 MOM overlap:    5.00 / 5
Maximum Overlap Method Active
IMOM method
 MOM overlap:    5.00 / 5

    7     -76.5368222461      4.39e-08
    8     -76.5368222461      9.85e-09  Convergence criterion met
Maximum Overlap Method Active
IMOM method
 MOM overlap:    5.00 / 5
Maximum Overlap Method Active
IMOM method
 MOM overlap:    5.00 / 5
Maximum Overlap Method Active
IMOM method
 MOM overlap:    5.00 / 5
Maximum Overlap Method Active
IMOM method
 MOM overlap:    5.00 / 5
 ---------------------------------------
 SCF time:   CPU 3.54s  wall 4.00s
<S^2> =          0.000000000
(3)  G-ENP(liq) elect-nuc-pol free energy of system      -76.536822246 a.u.
(4)  G-CDS(liq) cavity-dispersion-solvent structure
     free energy                                                1.4731 kcal/mol
(6)  G-S(liq) free energy of system                      -76.534474782 a.u.
 SCF   energy in the final basis set =      -76.5344747817
 Total energy in the final basis set =      -76.5344747817

 Direct TDDFT/TDA calculation will be performed
 Exchange:     0.5000 Hartree-Fock + 0.8300 B88 + -0.5000 muB88 + 0.1700 muB88src + LR-HF
               (Short-Range Corrected Functional)
 Correlation:  0.1900 VWN5 + 0.8100 LYP
 Using SG-1 standard quadrature grid
 Adding PCM contribution to the XC response (LR-PCM)
 CIS energy converged when residual is below 10e- 6

 ***Using a Restricted Set of Single Excitations***

 UCIS calculation

 Excitations from core orbitals
 in the presence of a valence hole
 ---------------------------------------------
  Note: orbitals have already been reordered
 ---------------------------------------------
 Total  virtuals used in TDDFT  136 =   68 alpha +   68 beta
 Total occupieds used in TDDFT    2 =    1 alpha +    1 beta
 -------------------------------------------------------------
              Alpha Orbitals in Truncated CIS space
 -------------------------------------------------------------
     1   6   7   8   9  10  11  12  13  14  15  16  17  18  19
    20  21  22  23  24  25  26  27  28  29  30  31  32  33  34
    35  36  37  38  39  40  41  42  43  44  45  46  47  48  49
    50  51  52  53  54  55  56  57  58  59  60  61  62  63  64
    65  66  67  68  69  70  71  72  73

    Number of Occupied Orbitals=  1  out of   5
    Number of Virtual Orbitals = 68  out of  68
 -------------------------------------------------------------
 -------------------------------------------------------------
              Beta Orbitals in Truncated CIS space
 -------------------------------------------------------------
     1   6   7   8   9  10  11  12  13  14  15  16  17  18  19
    20  21  22  23  24  25  26  27  28  29  30  31  32  33  34
    35  36  37  38  39  40  41  42  43  44  45  46  47  48  49
    50  51  52  53  54  55  56  57  58  59  60  61  62  63  64
    65  66  67  68  69  70  71  72  73

    Number of Occupied Orbitals=  1  out of   5
    Number of Virtual Orbitals = 68  out of  68
 -------------------------------------------------------------
 Number of Roots adjusted to:          10
 ---------------------------------------------------
 Iter    Rts Conv    Rts Left    Ttl Dev     Max Dev
 ---------------------------------------------------
   1         0          10      0.061992    0.010064
   2         0          10      0.020451    0.003078
   3         0          10      0.019135    0.003075
   4         1           9      0.019133    0.003075
   5         7           3      0.021565    0.004560
   6         9           1      0.018827    0.003075
   7         9           1      0.018794    0.003075
   8         9           1      0.018794    0.003075
   9        10           0      0.018794    0.003075    Roots Converged
 ---------------------------------------------------

 ---------------------------------------------------
         TDDFT/TDA Excitation Energies
 ---------------------------------------------------

 Excited state   1: excitation energy (eV) =  533.9298
 Total energy for state  1:                   -56.91291437 au
    <S**2>     :  2.0000
    Trans. Mom.: -0.0000 X  -0.0000 Y  -0.0000 Z
    Strength   :     0.0000000000
    D(    1) --> V(    1) amplitude = -0.6579 alpha
    D(    1) --> V(    5) amplitude = -0.1928 alpha
    D(    1) --> V(    1) amplitude =  0.6579 beta
    D(    1) --> V(    5) amplitude =  0.1928 beta

 Excited state   2: excitation energy (eV) =  535.0965
 Total energy for state  2:                   -56.87004159 au
    <S**2>     :  2.0000
    Trans. Mom.: -0.0000 X   0.0000 Y  -0.0000 Z
    Strength   :     0.0000000000
    D(    1) --> V(    2) amplitude = -0.6175 alpha
    D(    1) --> V(    3) amplitude = -0.2292 alpha
    D(    1) --> V(    7) amplitude = -0.2398 alpha
    D(    1) --> V(    2) amplitude =  0.6175 beta
    D(    1) --> V(    3) amplitude =  0.2292 beta
    D(    1) --> V(    7) amplitude =  0.2398 beta

 Excited state   3: excitation energy (eV) =  535.1010
 Total energy for state  3:                   -56.86987591 au
    <S**2>     :  0.0000
    Trans. Mom.: -0.0179 X  -0.0035 Y  -0.0307 Z
    Strength   :     0.0167642433
    D(    1) --> V(    1) amplitude =  0.6844 alpha
    D(    1) --> V(    1) amplitude =  0.6844 beta

 Excited state   4: excitation energy (eV) =  536.2528
 Total energy for state  4:                   -56.82754594 au
    <S**2>     :  0.0000
    Trans. Mom.: -0.0510 X   0.0146 Y   0.0276 Z
    Strength   :     0.0469065136
    D(    1) --> V(    2) amplitude =  0.6529 alpha
    D(    1) --> V(    3) amplitude =  0.1938 alpha
    D(    1) --> V(    7) amplitude =  0.1807 alpha
    D(    1) --> V(    2) amplitude =  0.6529 beta
    D(    1) --> V(    3) amplitude =  0.1938 beta
    D(    1) --> V(    7) amplitude =  0.1807 beta

 Excited state   5: excitation energy (eV) =  540.9118
 Total energy for state  5:                   -56.65633150 au
    <S**2>     :  2.0000
    Trans. Mom.: -0.0000 X  -0.0000 Y  -0.0000 Z
    Strength   :     0.0000000000
    D(    1) --> V(    1) amplitude =  0.2238 alpha
    D(    1) --> V(    5) amplitude = -0.6527 alpha
    D(    1) --> V(    1) amplitude = -0.2238 beta
    D(    1) --> V(    5) amplitude =  0.6527 beta

 Excited state   6: excitation energy (eV) =  541.5567
 Total energy for state  6:                   -56.63263220 au
    <S**2>     :  2.0000
    Trans. Mom.:  0.0000 X   0.0000 Y  -0.0000 Z
    Strength   :     0.0000000000
    D(    1) --> V(    6) amplitude =  0.6997 alpha
    D(    1) --> V(    6) amplitude = -0.6997 beta

 Excited state   7: excitation energy (eV) =  541.7889
 Total energy for state  7:                   -56.62409779 au
    <S**2>     :  2.0000
    Trans. Mom.: -0.0000 X   0.0000 Y   0.0000 Z
    Strength   :     0.0000000000
    D(    1) --> V(    2) amplitude =  0.2994 alpha
    D(    1) --> V(    3) amplitude = -0.6176 alpha
    D(    1) --> V(    7) amplitude = -0.1594 alpha
    D(    1) --> V(    2) amplitude = -0.2994 beta
    D(    1) --> V(    3) amplitude =  0.6176 beta
    D(    1) --> V(    7) amplitude =  0.1594 beta

 Excited state   8: excitation energy (eV) =  542.0061
 Total energy for state  8:                   -56.61611551 au
    <S**2>     :  0.0000
    Trans. Mom.: -0.0332 X  -0.0046 Y  -0.0476 Z
    Strength   :     0.0449502575
    D(    1) --> V(    1) amplitude = -0.1646 alpha
    D(    1) --> V(    4) amplitude =  0.2178 alpha
    D(    1) --> V(    5) amplitude =  0.6320 alpha
    D(    1) --> V(    1) amplitude = -0.1646 beta
    D(    1) --> V(    4) amplitude =  0.2178 beta
    D(    1) --> V(    5) amplitude =  0.6320 beta

 Excited state   9: excitation energy (eV) =  542.0261
 Total energy for state  9:                   -56.61538222 au
    <S**2>     :  0.0000
    Trans. Mom.: -0.0173 X   0.0077 Y   0.0224 Z
    Strength   :     0.0114293920
    D(    1) --> V(    2) amplitude = -0.2284 alpha
    D(    1) --> V(    3) amplitude =  0.6406 alpha
    D(    1) --> V(    2) amplitude = -0.2284 beta
    D(    1) --> V(    3) amplitude =  0.6406 beta

 Excited state  10: excitation energy (eV) =  542.7462
 Total energy for state 10:                   -56.58891806 au
    <S**2>     :  2.0000
    Trans. Mom.:  0.0000 X   0.0000 Y   0.0000 Z
    Strength   :     0.0000000000
    D(    1) --> V(    4) amplitude = -0.6786 alpha
    D(    1) --> V(    4) amplitude =  0.6786 beta

 ---------------------------------------------------
  SETman timing summary (seconds)
  CPU time                10.49s
  System time              0.00s
  Wall time               10.99s
================================================================================
                             Excited State Analysis
================================================================================

  Ground State (Reference) :
  -------------------------
    NOs (alpha)
      Occupation of frontier NOs:
         0.0000   1.0000
      Number of electrons:  5.000000
    NOs (beta)
      Occupation of frontier NOs:
         0.0000   1.0000
      Number of electrons:  5.000000
    NOs (spin-traced)
      Occupation of frontier NOs:
         0.0000   2.0000
      Number of electrons: 10.000000
      Number of unpaired electrons: n_u =  0.00000, n_u,nl =  0.00000

    Mulliken Population Analysis
    Atom      Charge (e)        Spin (e)
    ------------------------------------
     1 H        0.304422        0.000000
     2 O       -0.608187       -0.000001
     3 H        0.303765        0.000000
    ------------------------------------
    Sum:        0.000000       -0.000000

    Multipole moment analysis of the density matrix
      Molecular charge:                      0.000000
      Number of electrons:                   10.000000
        Center of electronic charge [Ang]: [  2.295277,   1.556105,  -0.100166]
      Total nuclear charge:                  10.000000
        Center of nuclear charge [Ang]:    [  2.269759,   1.550894,  -0.144757]
      Dipole moment [D]:                     2.480361
        Cartesian components [D]:          [ -1.225674,  -0.250293,  -2.141791]
      RMS size of the density [Ang]:         0.740832
        Cartesian components [Ang]:        [  0.446329,   0.402375,   0.433263]


  ----------------------------------------------------------------------------
                  Analysis of Unrelaxed Density Matrices
  ----------------------------------------------------------------------------

  Excited State 1 :
  -------------------------
    NOs (alpha)
      Occupation of frontier NOs:
         0.5000   0.5000
      Number of electrons:  5.000000
    NOs (beta)
      Occupation of frontier NOs:
         0.5000   0.5000
      Number of electrons:  5.000000
    NOs (spin-traced)
      Occupation of frontier NOs:
         1.0000   1.0000
      Number of electrons: 10.000000
      Number of unpaired electrons: n_u =  2.00000, n_u,nl =  2.00000
      NO participation ratio (PR_NO):  2.000000


    Mulliken Population Analysis
    Atom  Charge (e)    Spin (e)  h+ (alpha)   h+ (beta)  e- (alpha)   e- (beta)
    ----------------------------------------------------------------------------
     1 H   -0.143709    0.000002    0.000072    0.000072   -0.224136   -0.224138
     2 O    0.277933   -0.000003    0.499855    0.499858   -0.056796   -0.056796
     3 H   -0.134224    0.000002    0.000072    0.000072   -0.219066   -0.219067
    ----------------------------------------------------------------------------
    Sum:    0.000000   -0.000000    0.499998    0.500002   -0.499998   -0.500002

    Multipole moment analysis of the density matrix
      Molecular charge:                      0.000000
      Number of electrons:                   10.000000
        Center of electronic charge [Ang]: [  2.260190,   1.549323,  -0.159671]
      Total nuclear charge:                  10.000000
        Center of nuclear charge [Ang]:    [  2.269759,   1.550894,  -0.144757]
      Dipole moment [D]:                     0.854467
        Cartesian components [D]:          [  0.459602,   0.075471,   0.716368]
      RMS size of the density [Ang]:         0.916287
        Cartesian components [Ang]:        [  0.563538,   0.480683,   0.539397]

    Exciton analysis of the difference density matrix
    Total:
      <r_h> [Ang]:                  [  2.328688,   1.562923,  -0.041824]
      <r_e> [Ang]:                  [  1.977823,   1.495101,  -0.636876]
      |<r_e - r_h>| [Ang]:            0.694114
      Hole size [Ang]:                0.122441
        Cartesian components [Ang]: [  0.070693,   0.070690,   0.070691]
      Electron size [Ang]:            1.607068
        Cartesian components [Ang]: [  1.049431,   0.832640,   0.887734]

    Alpha spin:
      <r_h> [Ang]:                  [  2.328688,   1.562923,  -0.041824]
      <r_e> [Ang]:                  [  1.977823,   1.495101,  -0.636876]
      |<r_e - r_h>| [Ang]:            0.694114
      Hole size [Ang]:                0.122441
        Cartesian components [Ang]: [  0.070693,   0.070690,   0.070691]
      Electron size [Ang]:            1.607068
        Cartesian components [Ang]: [  1.049431,   0.832640,   0.887734]

    Beta spin:
      <r_h> [Ang]:                  [  2.328688,   1.562923,  -0.041824]
      <r_e> [Ang]:                  [  1.977823,   1.495101,  -0.636876]
      |<r_e - r_h>| [Ang]:            0.694114
      Hole size [Ang]:                0.122441
        Cartesian components [Ang]: [  0.070693,   0.070690,   0.070691]
      Electron size [Ang]:            1.607068
        Cartesian components [Ang]: [  1.049431,   0.832640,   0.887734]

  Excited State 2 :
  -------------------------
    NOs (alpha)
      Occupation of frontier NOs:
         0.5000   0.5000
      Number of electrons:  5.000000
    NOs (beta)
      Occupation of frontier NOs:
         0.5000   0.5000
      Number of electrons:  5.000000
    NOs (spin-traced)
      Occupation of frontier NOs:
         1.0000   1.0000
      Number of electrons: 10.000000
      Number of unpaired electrons: n_u =  2.00000, n_u,nl =  2.00000
      NO participation ratio (PR_NO):  2.000000


    Mulliken Population Analysis
    Atom  Charge (e)    Spin (e)  h+ (alpha)   h+ (beta)  e- (alpha)   e- (beta)
    ----------------------------------------------------------------------------
     1 H   -0.090864    0.000008    0.000072    0.000072   -0.197711   -0.197718
     2 O    0.193827   -0.000003    0.499855    0.499858   -0.098849   -0.098850
     3 H   -0.102963   -0.000004    0.000072    0.000072   -0.203438   -0.203434
    ----------------------------------------------------------------------------
    Sum:    0.000000   -0.000000    0.499998    0.500002   -0.499998   -0.500002

    Multipole moment analysis of the density matrix
      Molecular charge:                      0.000000
      Number of electrons:                   10.000000
        Center of electronic charge [Ang]: [  2.268474,   1.550187,  -0.149066]
      Total nuclear charge:                  10.000000
        Center of nuclear charge [Ang]:    [  2.269759,   1.550894,  -0.144757]
      Dipole moment [D]:                     0.218622
        Cartesian components [D]:          [  0.061744,   0.033967,   0.206953]
      RMS size of the density [Ang]:         0.919938
        Cartesian components [Ang]:        [  0.589536,   0.463881,   0.532491]

    Exciton analysis of the difference density matrix
    Total:
      <r_h> [Ang]:                  [  2.328688,   1.562923,  -0.041824]
      <r_e> [Ang]:                  [  2.060655,   1.503742,  -0.530819]
      |<r_e - r_h>| [Ang]:            0.560768
      Hole size [Ang]:                0.122441
        Cartesian components [Ang]: [  0.070693,   0.070690,   0.070691]
      Electron size [Ang]:            1.668019
        Cartesian components [Ang]: [  1.200700,   0.731747,   0.897303]

    Alpha spin:
      <r_h> [Ang]:                  [  2.328688,   1.562923,  -0.041824]
      <r_e> [Ang]:                  [  2.060664,   1.503739,  -0.530824]
      |<r_e - r_h>| [Ang]:            0.560768
      Hole size [Ang]:                0.122441
        Cartesian components [Ang]: [  0.070693,   0.070690,   0.070691]
      Electron size [Ang]:            1.668019
        Cartesian components [Ang]: [  1.200699,   0.731747,   0.897304]

    Beta spin:
      <r_h> [Ang]:                  [  2.328688,   1.562923,  -0.041824]
      <r_e> [Ang]:                  [  2.060645,   1.503744,  -0.530814]
      |<r_e - r_h>| [Ang]:            0.560768
      Hole size [Ang]:                0.122441
        Cartesian components [Ang]: [  0.070693,   0.070690,   0.070691]
      Electron size [Ang]:            1.668019
        Cartesian components [Ang]: [  1.200701,   0.731746,   0.897302]

  Excited State 3 :
  -------------------------
    NOs (alpha)
      Occupation of frontier NOs:
         0.5000   0.5000
      Number of electrons:  5.000000
    NOs (beta)
      Occupation of frontier NOs:
         0.5000   0.5000
      Number of electrons:  5.000000
    NOs (spin-traced)
      Occupation of frontier NOs:
         1.0000   1.0000
      Number of electrons: 10.000000
      Number of unpaired electrons: n_u =  2.00000, n_u,nl =  2.00000
      NO participation ratio (PR_NO):  2.000000


    Mulliken Population Analysis
    Atom  Charge (e)    Spin (e)  h+ (alpha)   h+ (beta)  e- (alpha)   e- (beta)
    ----------------------------------------------------------------------------
     1 H   -0.178271   -0.000007    0.000072    0.000072   -0.241422   -0.241415
     2 O    0.347950    0.000002    0.499858    0.499855   -0.021788   -0.021788
     3 H   -0.169679    0.000005    0.000072    0.000072   -0.236792   -0.236796
    ----------------------------------------------------------------------------
    Sum:    0.000000   -0.000000    0.500002    0.499998   -0.500002   -0.499998

    Multipole moment analysis of the density matrix
      Molecular charge:                      0.000000
      Number of electrons:                   10.000000
        Center of electronic charge [Ang]: [  2.258567,   1.548948,  -0.162711]
      Total nuclear charge:                  10.000000
        Center of nuclear charge [Ang]:    [  2.269759,   1.550894,  -0.144757]
      Dipole moment [D]:                     1.020471
        Cartesian components [D]:          [  0.537569,   0.093475,   0.862347]
      RMS size of the density [Ang]:         0.945890
        Cartesian components [Ang]:        [  0.580134,   0.498297,   0.556644]

    Exciton analysis of the difference density matrix
    Total:
      <r_h> [Ang]:                  [  2.328688,   1.562923,  -0.041824]
      <r_e> [Ang]:                  [  1.961591,   1.491353,  -0.667268]
      |<r_e - r_h>| [Ang]:            0.728741
      Hole size [Ang]:                0.122441
        Cartesian components [Ang]: [  0.070693,   0.070690,   0.070691]
      Electron size [Ang]:            1.759055
        Cartesian components [Ang]: [  1.132121,   0.930220,   0.973277]

    Alpha spin:
      <r_h> [Ang]:                  [  2.328688,   1.562923,  -0.041824]
      <r_e> [Ang]:                  [  1.961581,   1.491355,  -0.667263]
      |<r_e - r_h>| [Ang]:            0.728741
      Hole size [Ang]:                0.122441
        Cartesian components [Ang]: [  0.070693,   0.070690,   0.070691]
      Electron size [Ang]:            1.759055
        Cartesian components [Ang]: [  1.132121,   0.930220,   0.973277]

    Beta spin:
      <r_h> [Ang]:                  [  2.328688,   1.562923,  -0.041824]
      <r_e> [Ang]:                  [  1.961600,   1.491350,  -0.667273]
      |<r_e - r_h>| [Ang]:            0.728741
      Hole size [Ang]:                0.122441
        Cartesian components [Ang]: [  0.070693,   0.070690,   0.070691]
      Electron size [Ang]:            1.759055
        Cartesian components [Ang]: [  1.132121,   0.930220,   0.973277]

  Excited State 4 :
  -------------------------
    NOs (alpha)
      Occupation of frontier NOs:
         0.5000   0.5000
      Number of electrons:  5.000000
    NOs (beta)
      Occupation of frontier NOs:
         0.5000   0.5000
      Number of electrons:  5.000000
    NOs (spin-traced)
      Occupation of frontier NOs:
         1.0000   1.0000
      Number of electrons: 10.000000
      Number of unpaired electrons: n_u =  2.00000, n_u,nl =  2.00000
      NO participation ratio (PR_NO):  2.000000


    Mulliken Population Analysis
    Atom  Charge (e)    Spin (e)  h+ (alpha)   h+ (beta)  e- (alpha)   e- (beta)
    ----------------------------------------------------------------------------
     1 H   -0.138318   -0.000001    0.000072    0.000072   -0.221442   -0.221441
     2 O    0.287751    0.000002    0.499858    0.499855   -0.051887   -0.051887
     3 H   -0.149433   -0.000001    0.000072    0.000072   -0.226672   -0.226670
    ----------------------------------------------------------------------------
    Sum:    0.000000    0.000000    0.500002    0.499998   -0.500002   -0.499998

    Multipole moment analysis of the density matrix
      Molecular charge:                      0.000000
      Number of electrons:                   10.000000
        Center of electronic charge [Ang]: [  2.264972,   1.549514,  -0.154987]
      Total nuclear charge:                  10.000000
        Center of nuclear charge [Ang]:    [  2.269759,   1.550894,  -0.144757]
      Dipole moment [D]:                     0.546513
        Cartesian components [D]:          [  0.229918,   0.066287,   0.491345]
      RMS size of the density [Ang]:         0.955803
        Cartesian components [Ang]:        [  0.617019,   0.478291,   0.551438]

    Exciton analysis of the difference density matrix
    Total:
      <r_h> [Ang]:                  [  2.328688,   1.562923,  -0.041824]
      <r_e> [Ang]:                  [  2.025642,   1.497013,  -0.590028]
      |<r_e - r_h>| [Ang]:            0.629848
      Hole size [Ang]:                0.122441
        Cartesian components [Ang]: [  0.070693,   0.070690,   0.070691]
      Electron size [Ang]:            1.841286
        Cartesian components [Ang]: [  1.325752,   0.818874,   0.980898]

    Alpha spin:
      <r_h> [Ang]:                  [  2.328688,   1.562923,  -0.041824]
      <r_e> [Ang]:                  [  2.025642,   1.497013,  -0.590028]
      |<r_e - r_h>| [Ang]:            0.629848
      Hole size [Ang]:                0.122441
        Cartesian components [Ang]: [  0.070693,   0.070690,   0.070691]
      Electron size [Ang]:            1.841286
        Cartesian components [Ang]: [  1.325752,   0.818874,   0.980898]

    Beta spin:
      <r_h> [Ang]:                  [  2.328688,   1.562923,  -0.041824]
      <r_e> [Ang]:                  [  2.025642,   1.497013,  -0.590028]
      |<r_e - r_h>| [Ang]:            0.629848
      Hole size [Ang]:                0.122441
        Cartesian components [Ang]: [  0.070693,   0.070690,   0.070691]
      Electron size [Ang]:            1.841286
        Cartesian components [Ang]: [  1.325752,   0.818874,   0.980899]

  Excited State 5 :
  -------------------------
    NOs (alpha)
      Occupation of frontier NOs:
         0.5000   0.5000
      Number of electrons:  5.000000
    NOs (beta)
      Occupation of frontier NOs:
         0.5000   0.5000
      Number of electrons:  5.000000
    NOs (spin-traced)
      Occupation of frontier NOs:
         1.0000   1.0000
      Number of electrons: 10.000000
      Number of unpaired electrons: n_u =  2.00000, n_u,nl =  2.00000
      NO participation ratio (PR_NO):  2.000000


    Mulliken Population Analysis
    Atom  Charge (e)    Spin (e)  h+ (alpha)   h+ (beta)  e- (alpha)   e- (beta)
    ----------------------------------------------------------------------------
     1 H    0.097038    0.000001    0.000072    0.000072   -0.103764   -0.103764
     2 O   -0.197633   -0.000002    0.499855    0.499857   -0.294579   -0.294580
     3 H    0.100596    0.000001    0.000072    0.000072   -0.101657   -0.101657
    ----------------------------------------------------------------------------
    Sum:    0.000000   -0.000000    0.499999    0.500001   -0.499999   -0.500001

    Multipole moment analysis of the density matrix
      Molecular charge:                      0.000000
      Number of electrons:                   10.000000
        Center of electronic charge [Ang]: [  2.308822,   1.559128,  -0.075355]
      Total nuclear charge:                  10.000000
        Center of nuclear charge [Ang]:    [  2.269759,   1.550894,  -0.144757]
      Dipole moment [D]:                     3.845684
        Cartesian components [D]:          [ -1.876295,  -0.395504,  -3.333524]
      RMS size of the density [Ang]:         0.928496
        Cartesian components [Ang]:        [  0.554405,   0.493931,   0.557469]

    Exciton analysis of the difference density matrix
    Total:
      <r_h> [Ang]:                  [  2.328688,   1.562923,  -0.041824]
      <r_e> [Ang]:                  [  2.464144,   1.593155,   0.206288]
      |<r_e - r_h>| [Ang]:            0.284292
      Hole size [Ang]:                0.122441
        Cartesian components [Ang]: [  0.070693,   0.070690,   0.070691]
      Electron size [Ang]:            1.742572
        Cartesian components [Ang]: [  1.030042,   0.907955,   1.072935]

    Alpha spin:
      <r_h> [Ang]:                  [  2.328688,   1.562923,  -0.041824]
      <r_e> [Ang]:                  [  2.464144,   1.593155,   0.206289]
      |<r_e - r_h>| [Ang]:            0.284292
      Hole size [Ang]:                0.122441
        Cartesian components [Ang]: [  0.070693,   0.070690,   0.070691]
      Electron size [Ang]:            1.742572
        Cartesian components [Ang]: [  1.030042,   0.907954,   1.072935]

    Beta spin:
      <r_h> [Ang]:                  [  2.328688,   1.562923,  -0.041824]
      <r_e> [Ang]:                  [  2.464143,   1.593155,   0.206288]
      |<r_e - r_h>| [Ang]:            0.284291
      Hole size [Ang]:                0.122441
        Cartesian components [Ang]: [  0.070693,   0.070690,   0.070691]
      Electron size [Ang]:            1.742572
        Cartesian components [Ang]: [  1.030042,   0.907955,   1.072935]

  Excited State 6 :
  -------------------------
    NOs (alpha)
      Occupation of frontier NOs:
         0.5000   0.5000
      Number of electrons:  5.000000
    NOs (beta)
      Occupation of frontier NOs:
         0.5000   0.5000
      Number of electrons:  5.000000
    NOs (spin-traced)
      Occupation of frontier NOs:
         1.0000   1.0000
      Number of electrons: 10.000000
      Number of unpaired electrons: n_u =  2.00000, n_u,nl =  2.00000
      NO participation ratio (PR_NO):  2.000000


    Mulliken Population Analysis
    Atom  Charge (e)    Spin (e)  h+ (alpha)   h+ (beta)  e- (alpha)   e- (beta)
    ----------------------------------------------------------------------------
     1 H    0.306997    0.000000    0.000072    0.000072    0.001216    0.001216
     2 O   -0.613379   -0.000001    0.499855    0.499857   -0.502451   -0.502453
     3 H    0.306382    0.000000    0.000072    0.000072    0.001237    0.001237
    ----------------------------------------------------------------------------
    Sum:    0.000000   -0.000000    0.499999    0.500001   -0.499999   -0.500001

    Multipole moment analysis of the density matrix
      Molecular charge:                      0.000000
      Number of electrons:                   10.000000
        Center of electronic charge [Ang]: [  2.295487,   1.556141,  -0.099779]
      Total nuclear charge:                  10.000000
        Center of nuclear charge [Ang]:    [  2.269759,   1.550894,  -0.144757]
      Dipole moment [D]:                     2.501576
        Cartesian components [D]:          [ -1.235790,  -0.252040,  -2.160365]
      RMS size of the density [Ang]:         0.873176
        Cartesian components [Ang]:        [  0.493740,   0.533727,   0.483521]

    Exciton analysis of the difference density matrix
    Total:
      <r_h> [Ang]:                  [  2.328688,   1.562923,  -0.041824]
      <r_e> [Ang]:                  [  2.330794,   1.563287,  -0.037957]
      |<r_e - r_h>| [Ang]:            0.004418
      Hole size [Ang]:                0.122441
        Cartesian components [Ang]: [  0.070693,   0.070690,   0.070691]
      Electron size [Ang]:            1.466429
        Cartesian components [Ang]: [  0.671230,   1.111114,   0.682121]

    Alpha spin:
      <r_h> [Ang]:                  [  2.328688,   1.562923,  -0.041824]
      <r_e> [Ang]:                  [  2.330794,   1.563287,  -0.037957]
      |<r_e - r_h>| [Ang]:            0.004418
      Hole size [Ang]:                0.122441
        Cartesian components [Ang]: [  0.070693,   0.070690,   0.070691]
      Electron size [Ang]:            1.466429
        Cartesian components [Ang]: [  0.671230,   1.111114,   0.682121]

    Beta spin:
      <r_h> [Ang]:                  [  2.328688,   1.562923,  -0.041824]
      <r_e> [Ang]:                  [  2.330794,   1.563287,  -0.037957]
      |<r_e - r_h>| [Ang]:            0.004418
      Hole size [Ang]:                0.122441
        Cartesian components [Ang]: [  0.070693,   0.070690,   0.070691]
      Electron size [Ang]:            1.466429
        Cartesian components [Ang]: [  0.671230,   1.111114,   0.682121]

  Excited State 7 :
  -------------------------
    NOs (alpha)
      Occupation of frontier NOs:
         0.5000   0.5000
      Number of electrons:  5.000000
    NOs (beta)
      Occupation of frontier NOs:
         0.5000   0.5000
      Number of electrons:  5.000000
    NOs (spin-traced)
      Occupation of frontier NOs:
         1.0000   1.0000
      Number of electrons: 10.000000
      Number of unpaired electrons: n_u =  2.00000, n_u,nl =  2.00000
      NO participation ratio (PR_NO):  2.000000


    Mulliken Population Analysis
    Atom  Charge (e)    Spin (e)  h+ (alpha)   h+ (beta)  e- (alpha)   e- (beta)
    ----------------------------------------------------------------------------
     1 H   -0.098274    0.000007    0.000072    0.000072   -0.201416   -0.201423
     2 O    0.197249   -0.000014    0.499848    0.499865   -0.097136   -0.097140
     3 H   -0.098976    0.000007    0.000072    0.000072   -0.201439   -0.201446
    ----------------------------------------------------------------------------
    Sum:    0.000000   -0.000000    0.499991    0.500009   -0.499991   -0.500009

    Multipole moment analysis of the density matrix
      Molecular charge:                      0.000000
      Number of electrons:                   10.000000
        Center of electronic charge [Ang]: [  2.282301,   1.553368,  -0.123242]
      Total nuclear charge:                  10.000000
        Center of nuclear charge [Ang]:    [  2.269759,   1.550894,  -0.144757]
      Dipole moment [D]:                     1.202037
        Cartesian components [D]:          [ -0.602399,  -0.118835,  -1.033386]
      RMS size of the density [Ang]:         1.018099
        Cartesian components [Ang]:        [  0.658268,   0.516396,   0.580125]

    Exciton analysis of the difference density matrix
    Total:
      <r_h> [Ang]:                  [  2.328688,   1.562923,  -0.041824]
      <r_e> [Ang]:                  [  2.198925,   1.535554,  -0.272587]
      |<r_e - r_h>| [Ang]:            0.266156
      Hole size [Ang]:                0.122441
        Cartesian components [Ang]: [  0.070693,   0.070690,   0.070691]
      Electron size [Ang]:            2.205481
        Cartesian components [Ang]: [  1.529570,   1.025811,   1.213373]

    Alpha spin:
      <r_h> [Ang]:                  [  2.328688,   1.562923,  -0.041824]
      <r_e> [Ang]:                  [  2.198926,   1.535554,  -0.272588]
      |<r_e - r_h>| [Ang]:            0.266157
      Hole size [Ang]:                0.122441
        Cartesian components [Ang]: [  0.070693,   0.070690,   0.070691]
      Electron size [Ang]:            2.205482
        Cartesian components [Ang]: [  1.529570,   1.025811,   1.213373]

    Beta spin:
      <r_h> [Ang]:                  [  2.328688,   1.562923,  -0.041824]
      <r_e> [Ang]:                  [  2.198925,   1.535555,  -0.272586]
      |<r_e - r_h>| [Ang]:            0.266156
      Hole size [Ang]:                0.122441
        Cartesian components [Ang]: [  0.070693,   0.070690,   0.070691]
      Electron size [Ang]:            2.205480
        Cartesian components [Ang]: [  1.529569,   1.025810,   1.213372]

  Excited State 8 :
  -------------------------
    NOs (alpha)
      Occupation of frontier NOs:
         0.5000   0.5000
      Number of electrons:  5.000000
    NOs (beta)
      Occupation of frontier NOs:
         0.5000   0.5000
      Number of electrons:  5.000000
    NOs (spin-traced)
      Occupation of frontier NOs:
         1.0000   1.0000
      Number of electrons: 10.000000
      Number of unpaired electrons: n_u =  2.00000, n_u,nl =  2.00000
      NO participation ratio (PR_NO):  2.000000


    Mulliken Population Analysis
    Atom  Charge (e)    Spin (e)  h+ (alpha)   h+ (beta)  e- (alpha)   e- (beta)
    ----------------------------------------------------------------------------
     1 H   -0.094582   -0.000002    0.000072    0.000072   -0.199575   -0.199573
     2 O   -0.079005    0.000000    0.499858    0.499855   -0.235266   -0.235264
     3 H    0.173588    0.000001    0.000072    0.000072   -0.065160   -0.065161
    ----------------------------------------------------------------------------
    Sum:    0.000000    0.000000    0.500001    0.499999   -0.500001   -0.499999

    Multipole moment analysis of the density matrix
      Molecular charge:                      0.000000
      Number of electrons:                   10.000000
        Center of electronic charge [Ang]: [  2.268542,   1.564911,  -0.080409]
      Total nuclear charge:                  10.000000
        Center of nuclear charge [Ang]:    [  2.269759,   1.550894,  -0.144757]
      Dipole moment [D]:                     3.163785
        Cartesian components [D]:          [  0.058476,  -0.673287,  -3.090760]
      RMS size of the density [Ang]:         0.933569
        Cartesian components [Ang]:        [  0.563605,   0.498450,   0.552674]

    Exciton analysis of the difference density matrix
    Total:
      <r_h> [Ang]:                  [  2.328688,   1.562923,  -0.041824]
      <r_e> [Ang]:                  [  2.061335,   1.650988,   0.155746]
      |<r_e - r_h>| [Ang]:            0.343900
      Hole size [Ang]:                0.122441
        Cartesian components [Ang]: [  0.070693,   0.070690,   0.070691]
      Electron size [Ang]:            1.768996
        Cartesian components [Ang]: [  1.069083,   0.928591,   1.060248]

    Alpha spin:
      <r_h> [Ang]:                  [  2.328688,   1.562923,  -0.041824]
      <r_e> [Ang]:                  [  2.061333,   1.650989,   0.155749]
      |<r_e - r_h>| [Ang]:            0.343903
      Hole size [Ang]:                0.122441
        Cartesian components [Ang]: [  0.070693,   0.070690,   0.070691]
      Electron size [Ang]:            1.768995
        Cartesian components [Ang]: [  1.069082,   0.928591,   1.060247]

    Beta spin:
      <r_h> [Ang]:                  [  2.328688,   1.562923,  -0.041824]
      <r_e> [Ang]:                  [  2.061337,   1.650987,   0.155744]
      |<r_e - r_h>| [Ang]:            0.343897
      Hole size [Ang]:                0.122441
        Cartesian components [Ang]: [  0.070693,   0.070690,   0.070691]
      Electron size [Ang]:            1.768997
        Cartesian components [Ang]: [  1.069083,   0.928592,   1.060249]

  Excited State 9 :
  -------------------------
    NOs (alpha)
      Occupation of frontier NOs:
         0.5000   0.5000
      Number of electrons:  5.000000
    NOs (beta)
      Occupation of frontier NOs:
         0.5000   0.5000
      Number of electrons:  5.000000
    NOs (spin-traced)
      Occupation of frontier NOs:
         1.0000   1.0000
      Number of electrons: 10.000000
      Number of unpaired electrons: n_u =  2.00000, n_u,nl =  2.00000
      NO participation ratio (PR_NO):  2.000000


    Mulliken Population Analysis
    Atom  Charge (e)    Spin (e)  h+ (alpha)   h+ (beta)  e- (alpha)   e- (beta)
    ----------------------------------------------------------------------------
     1 H    0.067285   -0.000005    0.000072    0.000072   -0.118643   -0.118638
     2 O    0.132209    0.000012    0.499864    0.499848   -0.129660   -0.129656
     3 H   -0.199494   -0.000007    0.000072    0.000072   -0.251706   -0.251698
    ----------------------------------------------------------------------------
    Sum:    0.000000    0.000000    0.500008    0.499992   -0.500008   -0.499992

    Multipole moment analysis of the density matrix
      Molecular charge:                      0.000000
      Number of electrons:                   10.000000
        Center of electronic charge [Ang]: [  2.315793,   1.546130,  -0.130359]
      Total nuclear charge:                  10.000000
        Center of nuclear charge [Ang]:    [  2.269759,   1.550894,  -0.144757]
      Dipole moment [D]:                     2.328002
        Cartesian components [D]:          [ -2.211100,   0.228841,  -0.691563]
      RMS size of the density [Ang]:         0.985283
        Cartesian components [Ang]:        [  0.627706,   0.503520,   0.568539]

    Exciton analysis of the difference density matrix
    Total:
      <r_h> [Ang]:                  [  2.328688,   1.562923,  -0.041824]
      <r_e> [Ang]:                  [  2.533848,   1.463170,  -0.343753]
      |<r_e - r_h>| [Ang]:            0.378421
      Hole size [Ang]:                0.122441
        Cartesian components [Ang]: [  0.070693,   0.070690,   0.070691]
      Electron size [Ang]:            2.031871
        Cartesian components [Ang]: [  1.378935,   0.955858,   1.146025]

    Alpha spin:
      <r_h> [Ang]:                  [  2.328688,   1.562923,  -0.041824]
      <r_e> [Ang]:                  [  2.533846,   1.463171,  -0.343753]
      |<r_e - r_h>| [Ang]:            0.378420
      Hole size [Ang]:                0.122441
        Cartesian components [Ang]: [  0.070693,   0.070690,   0.070691]
      Electron size [Ang]:            2.031873
        Cartesian components [Ang]: [  1.378937,   0.955858,   1.146026]

    Beta spin:
      <r_h> [Ang]:                  [  2.328688,   1.562923,  -0.041824]
      <r_e> [Ang]:                  [  2.533850,   1.463170,  -0.343753]
      |<r_e - r_h>| [Ang]:            0.378423
      Hole size [Ang]:                0.122441
        Cartesian components [Ang]: [  0.070693,   0.070690,   0.070691]
      Electron size [Ang]:            2.031869
        Cartesian components [Ang]: [  1.378934,   0.955857,   1.146025]

  Excited State 10 :
  -------------------------
    NOs (alpha)
      Occupation of frontier NOs:
         0.5000   0.5000
      Number of electrons:  5.000000
    NOs (beta)
      Occupation of frontier NOs:
         0.5000   0.5000
      Number of electrons:  5.000000
    NOs (spin-traced)
      Occupation of frontier NOs:
         1.0000   1.0000
      Number of electrons: 10.000000
      Number of unpaired electrons: n_u =  2.00000, n_u,nl =  2.00000
      NO participation ratio (PR_NO):  2.000000


    Mulliken Population Analysis
    Atom  Charge (e)    Spin (e)  h+ (alpha)   h+ (beta)  e- (alpha)   e- (beta)
    ----------------------------------------------------------------------------
     1 H    0.047923    0.000001    0.000072    0.000072   -0.128321   -0.128322
     2 O   -0.092000   -0.000002    0.499854    0.499859   -0.241761   -0.241765
     3 H    0.044078    0.000001    0.000072    0.000072   -0.129915   -0.129916
    ----------------------------------------------------------------------------
    Sum:    0.000000    0.000000    0.499997    0.500003   -0.499997   -0.500003

    Multipole moment analysis of the density matrix
      Molecular charge:                      0.000000
      Number of electrons:                   10.000000
        Center of electronic charge [Ang]: [  2.271882,   1.551259,  -0.141362]
      Total nuclear charge:                  10.000000
        Center of nuclear charge [Ang]:    [  2.269759,   1.550894,  -0.144757]
      Dipole moment [D]:                     0.193139
        Cartesian components [D]:          [ -0.101993,  -0.017545,  -0.163071]
      RMS size of the density [Ang]:         0.968656
        Cartesian components [Ang]:        [  0.567172,   0.528324,   0.580932]

    Exciton analysis of the difference density matrix
    Total:
      <r_h> [Ang]:                  [  2.328688,   1.562923,  -0.041824]
      <r_e> [Ang]:                  [  2.094744,   1.514466,  -0.453782]
      |<r_e - r_h>| [Ang]:            0.476222
      Hole size [Ang]:                0.122441
        Cartesian components [Ang]: [  0.070693,   0.070690,   0.070691]
      Electron size [Ang]:            1.941612
        Cartesian components [Ang]: [  1.093674,   1.084322,   1.182363]

    Alpha spin:
      <r_h> [Ang]:                  [  2.328688,   1.562923,  -0.041824]
      <r_e> [Ang]:                  [  2.094743,   1.514466,  -0.453783]
      |<r_e - r_h>| [Ang]:            0.476224
      Hole size [Ang]:                0.122441
        Cartesian components [Ang]: [  0.070693,   0.070690,   0.070691]
      Electron size [Ang]:            1.941613
        Cartesian components [Ang]: [  1.093674,   1.084322,   1.182363]

    Beta spin:
      <r_h> [Ang]:                  [  2.328688,   1.562923,  -0.041824]
      <r_e> [Ang]:                  [  2.094745,   1.514466,  -0.453781]
      |<r_e - r_h>| [Ang]:            0.476221
      Hole size [Ang]:                0.122441
        Cartesian components [Ang]: [  0.070693,   0.070690,   0.070691]
      Electron size [Ang]:            1.941612
        Cartesian components [Ang]: [  1.093673,   1.084321,   1.182364]

  ----------------------------------------------------------------------------
                 Transition Density Matrix Analysis
  ----------------------------------------------------------------------------

  Excited State 1 :
  -------------------------

    CT numbers (Mulliken)
      omega =     1.0000 (alpha:     0.5000, beta:     0.5000)
      <Phe> =    -0.0000 (alpha:     0.0000, beta:    -0.0000)

    Exciton analysis of the transition density matrix
    Total:
      Trans. dipole moment [D]:             0.000000
        Cartesian components [D]:         [  0.000000,   0.000000,   0.000000]
      <r_h> [Ang]:                        [  2.328688,   1.562923,  -0.041824]
      <r_e> [Ang]:                        [  1.977823,   1.495101,  -0.636876]
      |<r_e - r_h>| [Ang]:                  0.694114
      Hole size [Ang]:                      0.122441
        Cartesian components [Ang]:       [  0.070693,   0.070690,   0.070691]
      Electron size [Ang]:                  1.607068
        Cartesian components [Ang]:       [  1.049431,   0.832640,   0.887734]
      RMS electron-hole separation [Ang]:   1.754837
        Cartesian components [Ang]:       [  1.108788,   0.838383,   1.071054]
      Covariance(r_h, r_e) [Ang^2]:        -0.000000
      Correlation coefficient:             -0.000000
      Center-of-mass size [Ang]:            0.805863
        Cartesian components [Ang]:       [  0.525905,   0.417818,   0.445272]

    Alpha spin:
      Trans. dipole moment [D]:             0.056275
        Cartesian components [D]:         [ -0.028240,  -0.005559,  -0.048358]
      <r_h> [Ang]:                        [  2.328688,   1.562923,  -0.041824]
      <r_e> [Ang]:                        [  1.977823,   1.495101,  -0.636876]
      |<r_e - r_h>| [Ang]:                  0.694114
      Hole size [Ang]:                      0.122441
        Cartesian components [Ang]:       [  0.070693,   0.070690,   0.070691]
      Electron size [Ang]:                  1.607068
        Cartesian components [Ang]:       [  1.049431,   0.832640,   0.887734]
      RMS electron-hole separation [Ang]:   1.754837
        Cartesian components [Ang]:       [  1.108788,   0.838383,   1.071054]
      Covariance(r_h, r_e) [Ang^2]:        -0.000000
      Correlation coefficient:             -0.000000
      Center-of-mass size [Ang]:            0.805863
        Cartesian components [Ang]:       [  0.525905,   0.417818,   0.445272]

    Beta spin:
      Trans. dipole moment [D]:             0.056275
        Cartesian components [D]:         [  0.028240,   0.005559,   0.048358]
      <r_h> [Ang]:                        [  2.328688,   1.562923,  -0.041824]
      <r_e> [Ang]:                        [  1.977823,   1.495101,  -0.636876]
      |<r_e - r_h>| [Ang]:                  0.694114
      Hole size [Ang]:                      0.122441
        Cartesian components [Ang]:       [  0.070693,   0.070690,   0.070691]
      Electron size [Ang]:                  1.607068
        Cartesian components [Ang]:       [  1.049431,   0.832640,   0.887734]
      RMS electron-hole separation [Ang]:   1.754837
        Cartesian components [Ang]:       [  1.108788,   0.838383,   1.071054]
      Covariance(r_h, r_e) [Ang^2]:        -0.000000
      Correlation coefficient:             -0.000000
      Center-of-mass size [Ang]:            0.805863
        Cartesian components [Ang]:       [  0.525905,   0.417818,   0.445272]

  Excited State 2 :
  -------------------------

    CT numbers (Mulliken)
      omega =     1.0000 (alpha:     0.5000, beta:     0.5000)
      <Phe> =    -0.0000 (alpha:     0.0000, beta:    -0.0000)

    Exciton analysis of the transition density matrix
    Total:
      Trans. dipole moment [D]:             0.000001
        Cartesian components [D]:         [  0.000001,  -0.000000,   0.000000]
      <r_h> [Ang]:                        [  2.328688,   1.562923,  -0.041824]
      <r_e> [Ang]:                        [  2.060655,   1.503742,  -0.530819]
      |<r_e - r_h>| [Ang]:                  0.560768
      Hole size [Ang]:                      0.122441
        Cartesian components [Ang]:       [  0.070693,   0.070690,   0.070691]
      Electron size [Ang]:                  1.668019
        Cartesian components [Ang]:       [  1.200700,   0.731747,   0.897303]
      RMS electron-hole separation [Ang]:   1.764012
        Cartesian components [Ang]:       [  1.232283,   0.737531,   1.024337]
      Covariance(r_h, r_e) [Ang^2]:         0.000000
      Correlation coefficient:              0.000000
      Center-of-mass size [Ang]:            0.836253
        Cartesian components [Ang]:       [  0.601390,   0.367577,   0.450042]

    Alpha spin:
      Trans. dipole moment [D]:             0.089314
        Cartesian components [D]:         [ -0.076148,   0.021830,   0.041256]
      <r_h> [Ang]:                        [  2.328688,   1.562923,  -0.041824]
      <r_e> [Ang]:                        [  2.060664,   1.503739,  -0.530824]
      |<r_e - r_h>| [Ang]:                  0.560768
      Hole size [Ang]:                      0.122441
        Cartesian components [Ang]:       [  0.070693,   0.070690,   0.070691]
      Electron size [Ang]:                  1.668019
        Cartesian components [Ang]:       [  1.200699,   0.731747,   0.897304]
      RMS electron-hole separation [Ang]:   1.764012
        Cartesian components [Ang]:       [  1.232280,   0.737532,   1.024340]
      Covariance(r_h, r_e) [Ang^2]:         0.000000
      Correlation coefficient:              0.000000
      Center-of-mass size [Ang]:            0.836253
        Cartesian components [Ang]:       [  0.601389,   0.367577,   0.450042]

    Beta spin:
      Trans. dipole moment [D]:             0.089315
        Cartesian components [D]:         [  0.076148,  -0.021830,  -0.041255]
      <r_h> [Ang]:                        [  2.328688,   1.562923,  -0.041824]
      <r_e> [Ang]:                        [  2.060645,   1.503744,  -0.530814]
      |<r_e - r_h>| [Ang]:                  0.560768
      Hole size [Ang]:                      0.122441
        Cartesian components [Ang]:       [  0.070693,   0.070690,   0.070691]
      Electron size [Ang]:                  1.668019
        Cartesian components [Ang]:       [  1.200701,   0.731746,   0.897302]
      RMS electron-hole separation [Ang]:   1.764012
        Cartesian components [Ang]:       [  1.232285,   0.737531,   1.024334]
      Covariance(r_h, r_e) [Ang^2]:        -0.000000
      Correlation coefficient:             -0.000000
      Center-of-mass size [Ang]:            0.836253
        Cartesian components [Ang]:       [  0.601390,   0.367577,   0.450041]

  Excited State 3 :
  -------------------------

    CT numbers (Mulliken)
      omega =     1.0000 (alpha:     0.5000, beta:     0.5000)
      <Phe> =    -0.0000 (alpha:    -0.0000, beta:    -0.0000)

    Exciton analysis of the transition density matrix
    Total:
      Trans. dipole moment [D]:             0.090892
        Cartesian components [D]:         [  0.045537,   0.009000,   0.078146]
      <r_h> [Ang]:                        [  2.328688,   1.562923,  -0.041824]
      <r_e> [Ang]:                        [  1.961591,   1.491353,  -0.667268]
      |<r_e - r_h>| [Ang]:                  0.728741
      Hole size [Ang]:                      0.122441
        Cartesian components [Ang]:       [  0.070693,   0.070690,   0.070691]
      Electron size [Ang]:                  1.759055
        Cartesian components [Ang]:       [  1.132121,   0.930220,   0.973277]
      RMS electron-hole separation [Ang]:   1.907965
        Cartesian components [Ang]:       [  1.192248,   0.935643,   1.159071]
      Covariance(r_h, r_e) [Ang^2]:        -0.000000
      Correlation coefficient:             -0.000000
      Center-of-mass size [Ang]:            0.881656
        Cartesian components [Ang]:       [  0.567163,   0.466451,   0.487920]

    Alpha spin:
      Trans. dipole moment [D]:             0.045446
        Cartesian components [D]:         [  0.022769,   0.004500,   0.039073]
      <r_h> [Ang]:                        [  2.328688,   1.562923,  -0.041824]
      <r_e> [Ang]:                        [  1.961581,   1.491355,  -0.667263]
      |<r_e - r_h>| [Ang]:                  0.728741
      Hole size [Ang]:                      0.122441
        Cartesian components [Ang]:       [  0.070693,   0.070690,   0.070691]
      Electron size [Ang]:                  1.759055
        Cartesian components [Ang]:       [  1.132121,   0.930220,   0.973277]
      RMS electron-hole separation [Ang]:   1.907965
        Cartesian components [Ang]:       [  1.192251,   0.935643,   1.159068]
      Covariance(r_h, r_e) [Ang^2]:        -0.000000
      Correlation coefficient:             -0.000000
      Center-of-mass size [Ang]:            0.881656
        Cartesian components [Ang]:       [  0.567163,   0.466451,   0.487920]

    Beta spin:
      Trans. dipole moment [D]:             0.045446
        Cartesian components [D]:         [  0.022768,   0.004500,   0.039073]
      <r_h> [Ang]:                        [  2.328688,   1.562923,  -0.041824]
      <r_e> [Ang]:                        [  1.961600,   1.491350,  -0.667273]
      |<r_e - r_h>| [Ang]:                  0.728741
      Hole size [Ang]:                      0.122441
        Cartesian components [Ang]:       [  0.070693,   0.070690,   0.070691]
      Electron size [Ang]:                  1.759055
        Cartesian components [Ang]:       [  1.132121,   0.930220,   0.973277]
      RMS electron-hole separation [Ang]:   1.907965
        Cartesian components [Ang]:       [  1.192245,   0.935644,   1.159074]
      Covariance(r_h, r_e) [Ang^2]:        -0.000000
[...]
      <Phe> =     0.0000 (alpha:     0.0000, beta:     0.0000)

    Exciton analysis of the transition density matrix
    Total:
      Trans. dipole moment [D]:             0.000001
        Cartesian components [D]:         [  0.000001,  -0.000000,  -0.000000]
      <r_h> [Ang]:                        [  2.328688,   1.562923,  -0.041824]
      <r_e> [Ang]:                        [  2.198925,   1.535554,  -0.272587]
      |<r_e - r_h>| [Ang]:                  0.266156
      Hole size [Ang]:                      0.122441
        Cartesian components [Ang]:       [  0.070693,   0.070690,   0.070691]
      Electron size [Ang]:                  2.205481
        Cartesian components [Ang]:       [  1.529570,   1.025811,   1.213373]
      RMS electron-hole separation [Ang]:   2.224854
        Cartesian components [Ang]:       [  1.536691,   1.028608,   1.237143]
      Covariance(r_h, r_e) [Ang^2]:         0.000000
      Correlation coefficient:              0.000000
      Center-of-mass size [Ang]:            1.104438
        Cartesian components [Ang]:       [  0.765601,   0.514122,   0.607715]

    Alpha spin:
      Trans. dipole moment [D]:             0.035546
        Cartesian components [D]:         [ -0.030197,   0.008739,   0.016591]
      <r_h> [Ang]:                        [  2.328688,   1.562923,  -0.041824]
      <r_e> [Ang]:                        [  2.198926,   1.535554,  -0.272588]
      |<r_e - r_h>| [Ang]:                  0.266157
      Hole size [Ang]:                      0.122441
        Cartesian components [Ang]:       [  0.070693,   0.070690,   0.070691]
      Electron size [Ang]:                  2.205482
        Cartesian components [Ang]:       [  1.529570,   1.025811,   1.213373]
      RMS electron-hole separation [Ang]:   2.224855
        Cartesian components [Ang]:       [  1.536692,   1.028608,   1.237144]
      Covariance(r_h, r_e) [Ang^2]:         0.000000
      Correlation coefficient:              0.000000
      Center-of-mass size [Ang]:            1.104439
        Cartesian components [Ang]:       [  0.765602,   0.514122,   0.607715]

    Beta spin:
      Trans. dipole moment [D]:             0.035546
        Cartesian components [D]:         [  0.030198,  -0.008739,  -0.016591]
      <r_h> [Ang]:                        [  2.328688,   1.562923,  -0.041824]
      <r_e> [Ang]:                        [  2.198925,   1.535555,  -0.272586]
      |<r_e - r_h>| [Ang]:                  0.266156
      Hole size [Ang]:                      0.122441
        Cartesian components [Ang]:       [  0.070693,   0.070690,   0.070691]
      Electron size [Ang]:                  2.205480
        Cartesian components [Ang]:       [  1.529569,   1.025810,   1.213372]
      RMS electron-hole separation [Ang]:   2.224853
        Cartesian components [Ang]:       [  1.536690,   1.028607,   1.237142]
      Covariance(r_h, r_e) [Ang^2]:        -0.000000
      Correlation coefficient:             -0.000000
      Center-of-mass size [Ang]:            1.104438
        Cartesian components [Ang]:       [  0.765601,   0.514122,   0.607715]

  Excited State 8 :
  -------------------------

    CT numbers (Mulliken)
      omega =     1.0000 (alpha:     0.5000, beta:     0.5000)
      <Phe> =     0.0000 (alpha:    -0.0000, beta:     0.0000)

    Exciton analysis of the transition density matrix
    Total:
      Trans. dipole moment [D]:             0.147883
        Cartesian components [D]:         [  0.084282,   0.011593,   0.120961]
      <r_h> [Ang]:                        [  2.328688,   1.562923,  -0.041824]
      <r_e> [Ang]:                        [  2.061335,   1.650988,   0.155746]
      |<r_e - r_h>| [Ang]:                  0.343900
      Hole size [Ang]:                      0.122441
        Cartesian components [Ang]:       [  0.070693,   0.070690,   0.070691]
      Electron size [Ang]:                  1.768996
        Cartesian components [Ang]:       [  1.069083,   0.928591,   1.060248]
      RMS electron-hole separation [Ang]:   1.806268
        Cartesian components [Ang]:       [  1.104270,   0.935433,   1.080813]
      Covariance(r_h, r_e) [Ang^2]:         0.000000
      Correlation coefficient:              0.000000
      Center-of-mass size [Ang]:            0.886614
        Cartesian components [Ang]:       [  0.535709,   0.465639,   0.531301]

    Alpha spin:
      Trans. dipole moment [D]:             0.073941
        Cartesian components [D]:         [  0.042141,   0.005797,   0.060480]
      <r_h> [Ang]:                        [  2.328688,   1.562923,  -0.041824]
      <r_e> [Ang]:                        [  2.061333,   1.650989,   0.155749]
      |<r_e - r_h>| [Ang]:                  0.343903
      Hole size [Ang]:                      0.122441
        Cartesian components [Ang]:       [  0.070693,   0.070690,   0.070691]
      Electron size [Ang]:                  1.768995
        Cartesian components [Ang]:       [  1.069082,   0.928591,   1.060247]
      RMS electron-hole separation [Ang]:   1.806268
        Cartesian components [Ang]:       [  1.104270,   0.935432,   1.080813]
      Covariance(r_h, r_e) [Ang^2]:         0.000000
      Correlation coefficient:              0.000000
      Center-of-mass size [Ang]:            0.886614
        Cartesian components [Ang]:       [  0.535709,   0.465639,   0.531301]

    Beta spin:
      Trans. dipole moment [D]:             0.073941
        Cartesian components [D]:         [  0.042141,   0.005797,   0.060480]
      <r_h> [Ang]:                        [  2.328688,   1.562923,  -0.041824]
      <r_e> [Ang]:                        [  2.061337,   1.650987,   0.155744]
      |<r_e - r_h>| [Ang]:                  0.343897
      Hole size [Ang]:                      0.122441
        Cartesian components [Ang]:       [  0.070693,   0.070690,   0.070691]
      Electron size [Ang]:                  1.768997
        Cartesian components [Ang]:       [  1.069083,   0.928592,   1.060249]
      RMS electron-hole separation [Ang]:   1.806268
        Cartesian components [Ang]:       [  1.104270,   0.935433,   1.080813]
      Covariance(r_h, r_e) [Ang^2]:        -0.000000
      Correlation coefficient:             -0.000000
      Center-of-mass size [Ang]:            0.886614
        Cartesian components [Ang]:       [  0.535709,   0.465639,   0.531301]

  Excited State 9 :
  -------------------------

    CT numbers (Mulliken)
      omega =     1.0000 (alpha:     0.5000, beta:     0.5000)
      <Phe> =     0.0000 (alpha:     0.0000, beta:    -0.0000)

    Exciton analysis of the transition density matrix
    Total:
      Trans. dipole moment [D]:             0.074568
        Cartesian components [D]:         [  0.043922,  -0.019688,  -0.056954]
      <r_h> [Ang]:                        [  2.328688,   1.562923,  -0.041824]
      <r_e> [Ang]:                        [  2.533848,   1.463170,  -0.343753]
      |<r_e - r_h>| [Ang]:                  0.378421
      Hole size [Ang]:                      0.122441
        Cartesian components [Ang]:       [  0.070693,   0.070690,   0.070691]
      Electron size [Ang]:                  2.031871
        Cartesian components [Ang]:       [  1.378935,   0.955858,   1.146025]
      RMS electron-hole separation [Ang]:   2.070433
        Cartesian components [Ang]:       [  1.395905,   0.963645,   1.187237]
      Covariance(r_h, r_e) [Ang^2]:        -0.000000
      Correlation coefficient:             -0.000000
      Center-of-mass size [Ang]:            1.017778
        Cartesian components [Ang]:       [  0.690373,   0.479234,   0.574102]

    Alpha spin:
      Trans. dipole moment [D]:             0.037284
        Cartesian components [D]:         [  0.021961,  -0.009844,  -0.028477]
      <r_h> [Ang]:                        [  2.328688,   1.562923,  -0.041824]
      <r_e> [Ang]:                        [  2.533846,   1.463171,  -0.343753]
      |<r_e - r_h>| [Ang]:                  0.378420
      Hole size [Ang]:                      0.122441
        Cartesian components [Ang]:       [  0.070693,   0.070690,   0.070691]
      Electron size [Ang]:                  2.031873
        Cartesian components [Ang]:       [  1.378937,   0.955858,   1.146026]
      RMS electron-hole separation [Ang]:   2.070435
        Cartesian components [Ang]:       [  1.395906,   0.963645,   1.187238]
      Covariance(r_h, r_e) [Ang^2]:         0.000000
      Correlation coefficient:              0.000000
      Center-of-mass size [Ang]:            1.017779
        Cartesian components [Ang]:       [  0.690374,   0.479234,   0.574102]

    Beta spin:
      Trans. dipole moment [D]:             0.037284
        Cartesian components [D]:         [  0.021961,  -0.009844,  -0.028477]
      <r_h> [Ang]:                        [  2.328688,   1.562923,  -0.041824]
      <r_e> [Ang]:                        [  2.533850,   1.463170,  -0.343753]
      |<r_e - r_h>| [Ang]:                  0.378423
      Hole size [Ang]:                      0.122441
        Cartesian components [Ang]:       [  0.070693,   0.070690,   0.070691]
      Electron size [Ang]:                  2.031869
        Cartesian components [Ang]:       [  1.378934,   0.955857,   1.146025]
      RMS electron-hole separation [Ang]:   2.070432
        Cartesian components [Ang]:       [  1.395904,   0.963644,   1.187237]
      Covariance(r_h, r_e) [Ang^2]:         0.000000
      Correlation coefficient:              0.000000
      Center-of-mass size [Ang]:            1.017778
        Cartesian components [Ang]:       [  0.690372,   0.479234,   0.574101]

  Excited State 10 :
  -------------------------

    CT numbers (Mulliken)
      omega =     1.0000 (alpha:     0.5000, beta:     0.5000)
      <Phe> =    -0.0000 (alpha:     0.0000, beta:    -0.0000)

    Exciton analysis of the transition density matrix
    Total:
      Trans. dipole moment [D]:             0.000000
        Cartesian components [D]:         [ -0.000000,  -0.000000,  -0.000000]
      <r_h> [Ang]:                        [  2.328688,   1.562923,  -0.041824]
      <r_e> [Ang]:                        [  2.094744,   1.514466,  -0.453782]
      |<r_e - r_h>| [Ang]:                  0.476222
      Hole size [Ang]:                      0.122441
        Cartesian components [Ang]:       [  0.070693,   0.070690,   0.070691]
      Electron size [Ang]:                  1.941612
        Cartesian components [Ang]:       [  1.093674,   1.084322,   1.182363]
      RMS electron-hole separation [Ang]:   2.002907
        Cartesian components [Ang]:       [  1.120647,   1.087703,   1.254069]
      Covariance(r_h, r_e) [Ang^2]:        -0.000000
      Correlation coefficient:             -0.000000
      Center-of-mass size [Ang]:            0.972735
        Cartesian components [Ang]:       [  0.547978,   0.543312,   0.592237]

    Alpha spin:
      Trans. dipole moment [D]:             0.012100
        Cartesian components [D]:         [  0.006062,   0.001197,   0.010404]
      <r_h> [Ang]:                        [  2.328688,   1.562923,  -0.041824]
      <r_e> [Ang]:                        [  2.094743,   1.514466,  -0.453783]
      |<r_e - r_h>| [Ang]:                  0.476224
      Hole size [Ang]:                      0.122441
        Cartesian components [Ang]:       [  0.070693,   0.070690,   0.070691]
      Electron size [Ang]:                  1.941613
        Cartesian components [Ang]:       [  1.093674,   1.084322,   1.182363]
      RMS electron-hole separation [Ang]:   2.002908
        Cartesian components [Ang]:       [  1.120647,   1.087704,   1.254070]
      Covariance(r_h, r_e) [Ang^2]:        -0.000000
      Correlation coefficient:             -0.000000
      Center-of-mass size [Ang]:            0.972735
        Cartesian components [Ang]:       [  0.547978,   0.543312,   0.592237]

    Beta spin:
      Trans. dipole moment [D]:             0.012100
        Cartesian components [D]:         [ -0.006062,  -0.001197,  -0.010404]
      <r_h> [Ang]:                        [  2.328688,   1.562923,  -0.041824]
      <r_e> [Ang]:                        [  2.094745,   1.514466,  -0.453781]
      |<r_e - r_h>| [Ang]:                  0.476221
      Hole size [Ang]:                      0.122441
        Cartesian components [Ang]:       [  0.070693,   0.070690,   0.070691]
      Electron size [Ang]:                  1.941612
        Cartesian components [Ang]:       [  1.093673,   1.084321,   1.182364]
      RMS electron-hole separation [Ang]:   2.002907
        Cartesian components [Ang]:       [  1.120646,   1.087703,   1.254069]
      Covariance(r_h, r_e) [Ang^2]:        -0.000000
      Correlation coefficient:             -0.000000
      Center-of-mass size [Ang]:            0.972734
        Cartesian components [Ang]:       [  0.547978,   0.543311,   0.592237]

  ----------------------------------------------------------------------------
                              SA-NTO Decomposition
  ----------------------------------------------------------------------------


  Excited State 1 :
  -------------------------
    Decomposition into state-averaged NTOs
    Alpha spin:
      H- 0 -> L+ 2: -0.6131 ( 37.6%)
      H- 0 -> L+ 1: -0.3502 ( 12.3%)
                     omega =  50.0%
    Beta spin:
      H- 0 -> L+ 2:  0.6131 ( 37.6%)
      H- 0 -> L+ 1:  0.3502 ( 12.3%)
                     omega =  50.0%

  Excited State 2 :
  -------------------------
    Decomposition into state-averaged NTOs
    Alpha spin:
      H- 0 -> L+ 3: -0.5262 ( 27.7%)
      H- 0 -> L+ 0: -0.4712 ( 22.2%)
                     omega =  50.0%
    Beta spin:
      H- 0 -> L+ 3:  0.5262 ( 27.7%)
      H- 0 -> L+ 0:  0.4712 ( 22.2%)
                     omega =  50.0%

  Excited State 3 :
  -------------------------
    Decomposition into state-averaged NTOs
    Alpha spin:
      H- 0 -> L+ 2:  0.5748 ( 33.0%)
      H- 0 -> L+ 1:  0.4113 ( 16.9%)
                     omega =  50.0%
    Beta spin:
      H- 0 -> L+ 2:  0.5748 ( 33.0%)
      H- 0 -> L+ 1:  0.4112 ( 16.9%)
                     omega =  50.0%

  Excited State 4 :
  -------------------------
    Decomposition into state-averaged NTOs
    Alpha spin:
      H- 0 -> L+ 0:  0.5139 ( 26.4%)
      H- 0 -> L+ 3:  0.4848 ( 23.5%)
                     omega =  50.0%
    Beta spin:
      H- 0 -> L+ 0:  0.5139 ( 26.4%)
      H- 0 -> L+ 3:  0.4848 ( 23.5%)
                     omega =  50.0%

  Excited State 5 :
  -------------------------
    Decomposition into state-averaged NTOs
    Alpha spin:
      H- 0 -> L+ 1:  0.6043 ( 36.5%)
      H- 0 -> L+ 2: -0.3505 ( 12.3%)
      H- 0 -> L+ 4:  0.1012 (  1.0%)
                     omega =  50.0%
    Beta spin:
      H- 0 -> L+ 1: -0.6043 ( 36.5%)
      H- 0 -> L+ 2:  0.3505 ( 12.3%)
      H- 0 -> L+ 4: -0.1012 (  1.0%)
                     omega =  50.0%

  Excited State 6 :
  -------------------------
    Decomposition into state-averaged NTOs
    Alpha spin:
      H- 0 -> L+ 5:  0.6616 ( 43.8%)
      H- 0 -> L+ 4:  0.2495 (  6.2%)
                     omega =  50.0%
    Beta spin:
      H- 0 -> L+ 5: -0.6616 ( 43.8%)
      H- 0 -> L+ 4: -0.2495 (  6.2%)
                     omega =  50.0%

  Excited State 7 :
  -------------------------
    Decomposition into state-averaged NTOs
    Alpha spin:
      H- 0 -> L+ 0:  0.5271 ( 27.8%)
      H- 0 -> L+ 3: -0.4704 ( 22.1%)
                     omega =  50.0%
    Beta spin:
      H- 0 -> L+ 0: -0.5272 ( 27.8%)
      H- 0 -> L+ 3:  0.4704 ( 22.1%)
                     omega =  50.0%

  Excited State 8 :
  -------------------------
    Decomposition into state-averaged NTOs
    Alpha spin:
      H- 0 -> L+ 1: -0.5639 ( 31.8%)
      H- 0 -> L+ 2:  0.4032 ( 16.3%)
                     omega =  50.0%
    Beta spin:
      H- 0 -> L+ 1: -0.5639 ( 31.8%)
      H- 0 -> L+ 2:  0.4032 ( 16.3%)
                     omega =  50.0%

  Excited State 9 :
  -------------------------
    Decomposition into state-averaged NTOs
    Alpha spin:
      H- 0 -> L+ 3:  0.5033 ( 25.3%)
      H- 0 -> L+ 0: -0.4760 ( 22.7%)
      H- 0 -> L+ 1:  0.1130 (  1.3%)
                     omega =  50.0%
    Beta spin:
      H- 0 -> L+ 3:  0.5033 ( 25.3%)
      H- 0 -> L+ 0: -0.4760 ( 22.7%)
      H- 0 -> L+ 1:  0.1130 (  1.3%)
                     omega =  50.0%

  Excited State 10 :
  -------------------------
    Decomposition into state-averaged NTOs
    Alpha spin:
      H- 0 -> L+ 4: -0.6532 ( 42.7%)
      H- 0 -> L+ 5:  0.2463 (  6.1%)
      H- 0 -> L+ 1:  0.1094 (  1.2%)
                     omega =  50.0%
    Beta spin:
      H- 0 -> L+ 4:  0.6532 ( 42.7%)
      H- 0 -> L+ 5: -0.2463 (  6.1%)
      H- 0 -> L+ 1: -0.1094 (  1.2%)
                     omega =  50.0%

================================================================================

 --------------------------------------------------------------

                    Orbital Energies (a.u.)
 --------------------------------------------------------------

 Alpha MOs
 -- Occupied --
-19.7394  -1.0723  -0.5372  -0.4151  -0.3408
 -- Virtual --
  0.0227   0.0905   0.2845   0.3026   0.3697   0.3874   0.5084   0.7100
  0.7903   0.8956   0.9539   1.0861   1.1852   1.2365   1.4611   1.4815
  1.9287   1.9909   2.0391   2.2068   2.2517   2.4172   3.0851   3.4650
  3.4832   3.6255   3.6788   3.7769   3.8841   3.9425   4.0920   4.1044
  4.3115   4.4900   4.5191   4.5449   4.7162   4.9049   4.9070   4.9481
  5.0611   5.1438   6.0555   6.0880   6.1073   6.2992   6.9791   7.1422
  7.2079   7.2167   7.4583   7.7458   8.0783   9.3448   9.9995  10.3062
 24.5803  35.8127  36.1567  36.3182  96.9866 165.6368 165.8670 165.9761
349.57741295.94515529.0137*********

 Beta MOs
 -- Occupied --
-19.7394  -1.0723  -0.5372  -0.4151  -0.3408
 -- Virtual --
  0.0227   0.0905   0.2845   0.3026   0.3697   0.3874   0.5084   0.7100
  0.7903   0.8956   0.9539   1.0861   1.1852   1.2365   1.4611   1.4815
  1.9287   1.9909   2.0391   2.2068   2.2517   2.4172   3.0851   3.4650
  3.4832   3.6255   3.6788   3.7769   3.8841   3.9425   4.0920   4.1044
  4.3115   4.4900   4.5191   4.5449   4.7162   4.9049   4.9070   4.9481
  5.0611   5.1438   6.0555   6.0880   6.1073   6.2992   6.9791   7.1422
  7.2079   7.2167   7.4583   7.7458   8.0783   9.3448   9.9995  10.3062
 24.5803  35.8127  36.1567  36.3182  96.9866 165.6368 165.8670 165.9761
349.57741295.94515529.0137*********
 --------------------------------------------------------------

 -----------------------------------------------------------------
                    Cartesian Multipole Moments
 -----------------------------------------------------------------
    Charge (ESU x 10^10)
                 0.0000
    Dipole Moment (Debye)
         X      -1.2257      Y      -0.2503      Z      -2.1418
       Tot       2.4804
    Quadrupole Moments (Debye-Ang)
        XX     -10.1987     XY      -3.1595     YY      -8.1755
        XZ      -5.5219     YZ      -2.7561     ZZ      -5.2084
    Octopole Moments (Debye-Ang^2)
       XXX     -52.6071    XXY     -20.1307    XYY     -23.8631
       YYY     -36.3969    XXZ     -14.1530    XYZ      -6.9897
       YYZ      -2.8273    XZZ     -11.2547    YZZ      -8.5837
       ZZZ       0.2463
    Hexadecapole Moments (Debye-Ang^3)
      XXXX    -225.3992   XXXY     -94.6984   XXYY     -79.3606
      XYYY     -93.0976   YYYY    -118.3015   XXXZ     -35.7720
      XXYZ     -17.6866   XYYZ      -7.1122   YYYZ      -1.3079
      XXZZ     -26.3488   XYZZ     -18.8201   YYZZ     -16.4026
      XZZZ      -0.1703   YZZZ       0.7943   ZZZZ      -5.9752
 -----------------------------------------------------------------
 Total job time:  15.43s(wall), 14.14s(cpu)
 Sun May 18 17:55:06 2025

        *************************************************************
        *                                                           *
        *  Thank you very much for using Q-Chem.  Have a nice day.  *
        *                                                           *
        *************************************************************
